# vtk DataFile Version 5.10.1
vtk file formated from the xyz file of structure model
ASCII
DATASET POLYDATA
POINTS 243 FLOAT
0.7708 4.3803 8.0857
0.7708 9.8144 8.0857
0.7708 15.2484 8.0857
5.8088 4.3803 8.0857
5.8088 9.8144 8.0857
5.8088 15.2484 8.0857
10.8468 4.3803 8.0857
10.8468 9.8144 8.0857
10.8468 15.2484 8.0857
1.7482 1.6634 8.0857
1.7482 7.0974 8.0857
1.7482 12.5313 8.0857
6.7862 1.6634 8.0857
6.7862 7.0974 8.0857
6.7862 12.5313 8.0857
11.8242 1.6634 8.0857
11.8242 7.0974 8.0857
11.8242 12.5313 8.0857
3.2898 5.2873 6.6557
3.2898 10.7213 6.6557
3.2898 16.1553 6.6557
8.3278 5.2873 6.6557
8.3278 10.7213 6.6557
8.3278 16.1553 6.6557
13.3658 5.2873 6.6557
13.3658 10.7213 6.6557
13.3658 16.1553 6.6557
4.2672 2.5703 6.6557
4.2672 8.0043 6.6557
4.2672 13.4383 6.6557
9.3052 2.5703 6.6557
9.3052 8.0043 6.6557
9.3052 13.4383 6.6557
14.3432 2.5703 6.6557
14.3432 8.0043 6.6557
14.3432 13.4383 6.6557
0.0000 4.5102 6.3019
0.0000 9.9442 6.3019
0.0000 15.3782 6.3019
5.0380 4.5102 6.3019
5.0380 9.9442 6.3019
5.0380 15.3782 6.3019
10.0760 4.5102 6.3019
10.0760 9.9442 6.3019
10.0760 15.3782 6.3019
2.5190 1.7932 6.3019
2.5190 7.2272 6.3019
2.5190 12.6612 6.3019
7.5570 1.7932 6.3019
7.5570 7.2272 6.3019
7.5570 12.6612 6.3019
12.5950 1.7932 6.3019
12.5950 7.2272 6.3019
12.5950 12.6612 6.3019
1.5416 3.2876 5.5280
1.5416 8.7216 5.5280
1.5416 14.1556 5.5280
6.5796 3.2876 5.5280
6.5796 8.7216 5.5280
6.5796 14.1556 5.5280
11.6176 3.2876 5.5280
11.6176 8.7216 5.5280
11.6176 14.1556 5.5280
0.9774 0.5651 5.5280
0.9774 5.9991 5.5280
0.9774 11.4331 5.5280
6.0154 0.5651 5.5280
6.0154 5.9991 5.5280
6.0154 11.4331 5.5280
11.0534 0.5651 5.5280
11.0534 5.9991 5.5280
11.0534 11.4331 5.5280
2.5190 4.7819 4.7541
2.5190 10.2159 4.7541
2.5190 15.6499 4.7541
7.5570 4.7819 4.7541
7.5570 10.2159 4.7541
7.5570 15.6499 4.7541
12.5950 4.7819 4.7541
12.5950 10.2159 4.7541
12.5950 15.6499 4.7541
0.0000 2.0595 4.7541
0.0000 7.4935 4.7541
0.0000 12.9275 4.7541
5.0380 2.0595 4.7541
5.0380 7.4935 4.7541
5.0380 12.9275 4.7541
10.0760 2.0595 4.7541
10.0760 7.4935 4.7541
10.0760 12.9275 4.7541
4.2672 4.0049 4.4003
4.2672 9.4389 4.4003
4.2672 14.8729 4.4003
9.3052 4.0049 4.4003
9.3052 9.4389 4.4003
9.3052 14.8729 4.4003
14.3432 4.0049 4.4003
14.3432 9.4389 4.4003
14.3432 14.8729 4.4003
3.2898 1.2824 4.4003
3.2898 6.7164 4.4003
3.2898 12.1504 4.4003
8.3278 1.2824 4.4003
8.3278 6.7164 4.4003
8.3278 12.1504 4.4003
13.3658 1.2824 4.4003
13.3658 6.7164 4.4003
13.3658 12.1504 4.4003
1.7482 4.9123 2.9704
1.7482 10.3463 2.9704
1.7482 15.7803 2.9704
6.7862 4.9123 2.9704
6.7862 10.3463 2.9704
6.7862 15.7803 2.9704
11.8242 4.9123 2.9704
11.8242 10.3463 2.9704
11.8242 15.7803 2.9704
0.7708 2.1899 2.9704
0.7708 7.6239 2.9704
0.7708 13.0579 2.9704
5.8088 2.1899 2.9704
5.8088 7.6239 2.9704
5.8088 13.0579 2.9704
10.8468 2.1899 2.9704
10.8468 7.6239 2.9704
10.8468 13.0579 2.9704
0.0000 4.1353 2.6166
0.0000 9.5693 2.6166
0.0000 15.0033 2.6166
5.0380 4.1353 2.6166
5.0380 9.5693 2.6166
5.0380 15.0033 2.6166
10.0760 4.1353 2.6166
10.0760 9.5693 2.6166
10.0760 15.0033 2.6166
2.5190 1.4128 2.6166
2.5190 6.8468 2.6166
2.5190 12.2808 2.6166
7.5570 1.4128 2.6166
7.5570 6.8468 2.6166
7.5570 12.2808 2.6166
12.5950 1.4128 2.6166
12.5950 6.8468 2.6166
12.5950 12.2808 2.6166
3.4964 2.9072 1.8427
3.4964 8.3412 1.8427
3.4964 13.7752 1.8427
8.5344 2.9072 1.8427
8.5344 8.3412 1.8427
8.5344 13.7752 1.8427
13.5724 2.9072 1.8427
13.5724 8.3412 1.8427
13.5724 13.7752 1.8427
4.0606 0.1902 1.8427
4.0606 5.6242 1.8427
4.0606 11.0582 1.8427
9.0986 0.1902 1.8427
9.0986 5.6242 1.8427
9.0986 11.0582 1.8427
14.1366 0.1902 1.8427
14.1366 5.6242 1.8427
14.1366 11.0582 1.8427
2.5190 4.4015 1.0688
2.5190 9.8355 1.0688
2.5190 15.2695 1.0688
7.5570 4.4015 1.0688
7.5570 9.8355 1.0688
7.5570 15.2695 1.0688
12.5950 4.4015 1.0688
12.5950 9.8355 1.0688
12.5950 15.2695 1.0688
0.0000 1.6845 1.0688
0.0000 7.1185 1.0688
0.0000 12.5525 1.0688
5.0380 1.6845 1.0688
5.0380 7.1185 1.0688
5.0380 12.5525 1.0688
10.0760 1.6845 1.0688
10.0760 7.1185 1.0688
10.0760 12.5525 1.0688
0.7708 3.6245 0.7150
0.7708 9.0585 0.7150
0.7708 14.4925 0.7150
5.8088 3.6245 0.7150
5.8088 9.0585 0.7150
5.8088 14.4925 0.7150
10.8468 3.6245 0.7150
10.8468 9.0585 0.7150
10.8468 14.4925 0.7150
1.7482 0.9075 0.7150
1.7482 6.3415 0.7150
1.7482 11.7755 0.7150
6.7862 0.9075 0.7150
6.7862 6.3415 0.7150
6.7862 11.7755 0.7150
11.8242 0.9075 0.7150
11.8242 6.3415 0.7150
11.8242 11.7755 0.7150
-0.3959 2.4263 9.1609
-0.3959 7.8604 9.1609
-0.3959 13.2943 9.1609
4.6421 2.4263 9.1609
4.6421 7.8604 9.1609
4.6421 13.2943 9.1609
9.6801 2.4263 9.1609
9.6801 7.8604 9.1609
9.6801 13.2943 9.1609
1.2595 1.6634 9.0857
1.2595 7.0974 9.0857
1.2595 12.5313 9.0857
6.2975 1.6634 9.0857
6.2975 7.0974 9.0857
6.2975 12.5313 9.0857
11.3355 1.6634 9.0857
11.3355 7.0974 9.0857
11.3355 12.5313 9.0857
1.2595 4.3803 9.0857
1.2595 9.8144 9.0857
1.2595 15.2484 9.0857
6.2975 4.3803 9.0857
6.2975 9.8144 9.0857
6.2975 15.2484 9.0857
11.3355 4.3803 9.0857
11.3355 9.8144 9.0857
11.3355 15.2484 9.0857
1.2595 1.6634 9.0857
1.2595 7.0974 9.0857
1.2595 12.5313 9.0857
6.2975 1.6634 9.0857
6.2975 7.0974 9.0857
6.2975 12.5313 9.0857
11.3355 1.6634 9.0857
11.3355 7.0974 9.0857
11.3355 12.5313 9.0857
1.2595 4.3803 9.0857
1.2595 9.8144 9.0857
1.2595 15.2484 9.0857
6.2975 4.3803 9.0857
6.2975 9.8144 9.0857
6.2975 15.2484 9.0857
11.3355 4.3803 9.0857
11.3355 9.8144 9.0857
11.3355 15.2484 9.0857
POLYGONS 256 1024
3 3 18 27
3 3 18 67
3 3 57 27
3 3 57 67
3 90 18 27
3 90 18 67
3 90 57 27
3 90 57 67
3 4 19 28
3 4 19 68
3 4 58 28
3 4 58 68
3 91 19 28
3 91 19 68
3 91 58 28
3 91 58 68
3 6 21 30
3 6 21 70
3 6 60 30
3 6 60 70
3 93 21 30
3 93 21 70
3 93 60 30
3 93 60 70
3 7 22 31
3 7 22 71
3 7 61 31
3 7 61 71
3 94 22 31
3 94 22 71
3 94 61 31
3 94 61 71
3 10 18 28
3 10 18 64
3 10 55 28
3 10 55 64
3 100 18 28
3 100 18 64
3 100 55 28
3 100 55 64
3 11 19 29
3 11 19 65
3 11 56 29
3 11 56 65
3 101 19 29
3 101 19 65
3 101 56 29
3 101 56 65
3 13 21 31
3 13 21 67
3 13 58 31
3 13 58 67
3 103 21 31
3 103 21 67
3 103 58 31
3 103 58 67
3 14 22 32
3 14 22 68
3 14 59 32
3 14 59 68
3 104 22 32
3 104 22 68
3 104 59 32
3 104 59 68
3 16 24 34
3 16 24 70
3 16 61 34
3 16 61 70
3 106 24 34
3 106 24 70
3 106 61 34
3 106 61 70
3 17 25 35
3 17 25 71
3 17 62 35
3 17 62 71
3 107 25 35
3 107 25 71
3 107 62 35
3 107 62 71
3 18 54 64
3 18 54 90
3 18 100 64
3 18 100 90
3 108 54 64
3 108 54 90
3 108 100 64
3 108 100 90
3 19 55 65
3 19 55 91
3 19 101 65
3 19 101 91
3 109 55 65
3 109 55 91
3 109 101 65
3 109 101 91
3 21 57 67
3 21 57 93
3 21 103 67
3 21 103 93
3 111 57 67
3 111 57 93
3 111 103 67
3 111 103 93
3 22 58 68
3 22 58 94
3 22 104 68
3 22 104 94
3 112 58 68
3 112 58 94
3 112 104 68
3 112 104 94
3 24 60 70
3 24 60 96
3 24 106 70
3 24 106 96
3 114 60 70
3 114 60 96
3 114 106 70
3 114 106 96
3 25 61 71
3 25 61 97
3 25 107 71
3 25 107 97
3 115 61 71
3 115 61 97
3 115 107 71
3 115 107 97
3 27 57 66
3 27 57 90
3 27 99 66
3 27 99 90
3 120 57 66
3 120 57 90
3 120 99 66
3 120 99 90
3 28 58 67
3 28 58 91
3 28 100 67
3 28 100 91
3 121 58 67
3 121 58 91
3 121 100 67
3 121 100 91
3 29 59 68
3 29 59 92
3 29 101 68
3 29 101 92
3 122 59 68
3 122 59 92
3 122 101 68
3 122 101 92
3 30 60 69
3 30 60 93
3 30 102 69
3 30 102 93
3 123 60 69
3 123 60 93
3 123 102 69
3 123 102 93
3 31 61 70
3 31 61 94
3 31 103 70
3 31 103 94
3 124 61 70
3 124 61 94
3 124 103 70
3 124 103 94
3 32 62 71
3 32 62 95
3 32 104 71
3 32 104 95
3 125 62 71
3 125 62 95
3 125 104 71
3 125 104 95
3 90 111 120
3 90 111 154
3 90 144 120
3 90 144 154
3 183 111 120
3 183 111 154
3 183 144 120
3 183 144 154
3 91 112 121
3 91 112 155
3 91 145 121
3 91 145 155
3 184 112 121
3 184 112 155
3 184 145 121
3 184 145 155
3 93 114 123
3 93 114 157
3 93 147 123
3 93 147 157
3 186 114 123
3 186 114 157
3 186 147 123
3 186 147 157
3 94 115 124
3 94 115 158
3 94 148 124
3 94 148 158
3 187 115 124
3 187 115 158
3 187 148 124
3 187 148 158
3 100 108 118
3 100 108 154
3 100 145 118
3 100 145 154
3 190 108 118
3 190 108 154
3 190 145 118
3 190 145 154
3 101 109 119
3 101 109 155
3 101 146 119
3 101 146 155
3 191 109 119
3 191 109 155
3 191 146 119
3 191 146 155
3 103 111 121
3 103 111 157
3 103 148 121
3 103 148 157
3 193 111 121
3 193 111 157
3 193 148 121
3 193 148 157
3 104 112 122
3 104 112 158
3 104 149 122
3 104 149 158
3 194 112 122
3 194 112 158
3 194 149 122
3 194 149 158
3 106 114 124
3 106 114 160
3 106 151 124
3 106 151 160
3 196 114 124
3 196 114 160
3 196 151 124
3 196 151 160
3 107 115 125
3 107 115 161
3 107 152 125
3 107 152 161
3 197 115 125
3 197 115 161
3 197 152 125
3 197 152 161
LINES 358 1074
2 36 0
2 36 54
2 36 64
2 37 1
2 37 55
2 37 65
2 38 2
2 38 56
2 39 3
2 39 18
2 39 27
2 39 57
2 39 67
2 39 90
2 40 4
2 40 19
2 40 28
2 40 58
2 40 68
2 40 91
2 41 5
2 41 20
2 41 29
2 41 59
2 41 92
2 42 6
2 42 21
2 42 30
2 42 60
2 42 70
2 42 93
2 43 7
2 43 22
2 43 31
2 43 61
2 43 71
2 43 94
2 44 8
2 44 23
2 44 32
2 44 62
2 44 95
2 45 9
2 45 27
2 45 54
2 45 63
2 45 99
2 46 10
2 46 18
2 46 28
2 46 55
2 46 64
2 46 100
2 47 11
2 47 19
2 47 29
2 47 56
2 47 65
2 47 101
2 48 12
2 48 30
2 48 57
2 48 66
2 48 102
2 49 13
2 49 21
2 49 31
2 49 58
2 49 67
2 49 103
2 50 14
2 50 22
2 50 32
2 50 59
2 50 68
2 50 104
2 51 15
2 51 33
2 51 60
2 51 69
2 51 105
2 52 16
2 52 24
2 52 34
2 52 61
2 52 70
2 52 106
2 53 17
2 53 25
2 53 35
2 53 62
2 53 71
2 53 107
2 72 18
2 72 54
2 72 64
2 72 90
2 72 100
2 72 108
2 73 19
2 73 55
2 73 65
2 73 91
2 73 101
2 73 109
2 74 20
2 74 56
2 74 92
2 74 110
2 75 21
2 75 57
2 75 67
2 75 93
2 75 103
2 75 111
2 76 22
2 76 58
2 76 68
2 76 94
2 76 104
2 76 112
2 77 23
2 77 59
2 77 95
2 77 113
2 78 24
2 78 60
2 78 70
2 78 96
2 78 106
2 78 114
2 79 25
2 79 61
2 79 71
2 79 97
2 79 107
2 79 115
2 80 26
2 80 62
2 80 98
2 80 116
2 81 54
2 81 63
2 81 117
2 82 55
2 82 64
2 82 118
2 83 56
2 83 65
2 83 119
2 84 27
2 84 57
2 84 66
2 84 90
2 84 99
2 84 120
2 85 28
2 85 58
2 85 67
2 85 91
2 85 100
2 85 121
2 86 29
2 86 59
2 86 68
2 86 92
2 86 101
2 86 122
2 87 30
2 87 60
2 87 69
2 87 93
2 87 102
2 87 123
2 88 31
2 88 61
2 88 70
2 88 94
2 88 103
2 88 124
2 89 32
2 89 62
2 89 71
2 89 95
2 89 104
2 89 125
2 126 108
2 126 117
2 126 180
2 127 109
2 127 118
2 127 181
2 128 110
2 128 119
2 128 182
2 129 90
2 129 111
2 129 120
2 129 144
2 129 154
2 129 183
2 130 91
2 130 112
2 130 121
2 130 145
2 130 155
2 130 184
2 131 92
2 131 113
2 131 122
2 131 146
2 131 185
2 132 93
2 132 114
2 132 123
2 132 147
2 132 157
2 132 186
2 133 94
2 133 115
2 133 124
2 133 148
2 133 158
2 133 187
2 134 95
2 134 116
2 134 125
2 134 149
2 134 188
2 135 99
2 135 117
2 135 144
2 135 153
2 135 189
2 136 100
2 136 108
2 136 118
2 136 145
2 136 154
2 136 190
2 137 101
2 137 109
2 137 119
2 137 146
2 137 155
2 137 191
2 138 102
2 138 120
2 138 147
2 138 156
2 138 192
2 139 103
2 139 111
2 139 121
2 139 148
2 139 157
2 139 193
2 140 104
2 140 112
2 140 122
2 140 149
2 140 158
2 140 194
2 141 105
2 141 123
2 141 150
2 141 159
2 141 195
2 142 106
2 142 114
2 142 124
2 142 151
2 142 160
2 142 196
2 143 107
2 143 115
2 143 125
2 143 152
2 143 161
2 143 197
2 162 108
2 162 144
2 162 154
2 162 180
2 162 190
2 163 109
2 163 145
2 163 155
2 163 181
2 163 191
2 164 110
2 164 146
2 164 182
2 165 111
2 165 147
2 165 157
2 165 183
2 165 193
2 166 112
2 166 148
2 166 158
2 166 184
2 166 194
2 167 113
2 167 149
2 167 185
2 168 114
2 168 150
2 168 160
2 168 186
2 168 196
2 169 115
2 169 151
2 169 161
2 169 187
2 169 197
2 170 116
2 170 152
2 170 188
2 171 117
2 171 180
2 171 189
2 172 118
2 172 181
2 172 190
2 173 119
2 173 182
2 173 191
2 174 120
2 174 144
2 174 153
2 174 183
2 174 192
2 175 121
2 175 145
2 175 154
2 175 184
2 175 193
2 176 122
2 176 146
2 176 155
2 176 185
2 176 194
2 177 123
2 177 147
2 177 156
2 177 186
2 177 195
2 178 124
2 178 148
2 178 157
2 178 187
2 178 196
2 179 125
2 179 149
2 179 158
2 179 188
2 179 197

POINT_DATA 243
SCALARS Color_of_Sphere float
LOOKUP_TABLE table_point
0.6
0.6
0.6
0.6
0.6
0.6
0.6
0.6
0.6
0.6
0.6
0.6
0.6
0.6
0.6
0.6
0.6
0.6
0.6
0.6
0.6
0.6
0.6
0.6
0.6
0.6
0.6
0.6
0.6
0.6
0.6
0.6
0.6
0.6
0.6
0.6
0.3
0.3
0.3
0.3
0.3
0.3
0.3
0.3
0.3
0.3
0.3
0.3
0.3
0.3
0.3
0.3
0.3
0.3
0.6
0.6
0.6
0.6
0.6
0.6
0.6
0.6
0.6
0.6
0.6
0.6
0.6
0.6
0.6
0.6
0.6
0.6
0.3
0.3
0.3
0.3
0.3
0.3
0.3
0.3
0.3
0.3
0.3
0.3
0.3
0.3
0.3
0.3
0.3
0.3
0.6
0.6
0.6
0.6
0.6
0.6
0.6
0.6
0.6
0.6
0.6
0.6
0.6
0.6
0.6
0.6
0.6
0.6
0.6
0.6
0.6
0.6
0.6
0.6
0.6
0.6
0.6
0.6
0.6
0.6
0.6
0.6
0.6
0.6
0.6
0.6
0.3
0.3
0.3
0.3
0.3
0.3
0.3
0.3
0.3
0.3
0.3
0.3
0.3
0.3
0.3
0.3
0.3
0.3
0.6
0.6
0.6
0.6
0.6
0.6
0.6
0.6
0.6
0.6
0.6
0.6
0.6
0.6
0.6
0.6
0.6
0.6
0.3
0.3
0.3
0.3
0.3
0.3
0.3
0.3
0.3
0.3
0.3
0.3
0.3
0.3
0.3
0.3
0.3
0.3
0.6
0.6
0.6
0.6
0.6
0.6
0.6
0.6
0.6
0.6
0.6
0.6
0.6
0.6
0.6
0.6
0.6
0.6
0.0
0.0
0.0
0.0
0.0
0.0
0.0
0.0
0.0
0.6
0.6
0.6
0.6
0.6
0.6
0.6
0.6
0.6
0.6
0.6
0.6
0.6
0.6
0.6
0.6
0.6
0.6
0.6
0.6
0.6
0.6
0.6
0.6
0.6
0.6
0.6
0.6
0.6
0.6
0.6
0.6
0.6
0.6
0.6
0.6
LOOKUP_TABLE table_point 243
0.93750 0.00000 0.00000 1.0
0.93750 0.00000 0.00000 1.0
0.93750 0.00000 0.00000 1.0
0.93750 0.00000 0.00000 1.0
0.93750 0.00000 0.00000 1.0
0.93750 0.00000 0.00000 1.0
0.93750 0.00000 0.00000 1.0
0.93750 0.00000 0.00000 1.0
0.93750 0.00000 0.00000 1.0
0.93750 0.00000 0.00000 1.0
0.93750 0.00000 0.00000 1.0
0.93750 0.00000 0.00000 1.0
0.93750 0.00000 0.00000 1.0
0.93750 0.00000 0.00000 1.0
0.93750 0.00000 0.00000 1.0
0.93750 0.00000 0.00000 1.0
0.93750 0.00000 0.00000 1.0
0.93750 0.00000 0.00000 1.0
0.93750 0.00000 0.00000 1.0
0.93750 0.00000 0.00000 1.0
0.93750 0.00000 0.00000 1.0
0.93750 0.00000 0.00000 1.0
0.93750 0.00000 0.00000 1.0
0.93750 0.00000 0.00000 1.0
0.93750 0.00000 0.00000 1.0
0.93750 0.00000 0.00000 1.0
0.93750 0.00000 0.00000 1.0
0.93750 0.00000 0.00000 1.0
0.93750 0.00000 0.00000 1.0
0.93750 0.00000 0.00000 1.0
0.93750 0.00000 0.00000 1.0
0.93750 0.00000 0.00000 1.0
0.93750 0.00000 0.00000 1.0
0.93750 0.00000 0.00000 1.0
0.93750 0.00000 0.00000 1.0
0.93750 0.00000 0.00000 1.0
0.50391 0.48047 0.77344 1.0
0.50391 0.48047 0.77344 1.0
0.50391 0.48047 0.77344 1.0
0.50391 0.48047 0.77344 1.0
0.50391 0.48047 0.77344 1.0
0.50391 0.48047 0.77344 1.0
0.50391 0.48047 0.77344 1.0
0.50391 0.48047 0.77344 1.0
0.50391 0.48047 0.77344 1.0
0.50391 0.48047 0.77344 1.0
0.50391 0.48047 0.77344 1.0
0.50391 0.48047 0.77344 1.0
0.50391 0.48047 0.77344 1.0
0.50391 0.48047 0.77344 1.0
0.50391 0.48047 0.77344 1.0
0.50391 0.48047 0.77344 1.0
0.50391 0.48047 0.77344 1.0
0.50391 0.48047 0.77344 1.0
0.93750 0.00000 0.00000 1.0
0.93750 0.00000 0.00000 1.0
0.93750 0.00000 0.00000 1.0
0.93750 0.00000 0.00000 1.0
0.93750 0.00000 0.00000 1.0
0.93750 0.00000 0.00000 1.0
0.93750 0.00000 0.00000 1.0
0.93750 0.00000 0.00000 1.0
0.93750 0.00000 0.00000 1.0
0.93750 0.00000 0.00000 1.0
0.93750 0.00000 0.00000 1.0
0.93750 0.00000 0.00000 1.0
0.93750 0.00000 0.00000 1.0
0.93750 0.00000 0.00000 1.0
0.93750 0.00000 0.00000 1.0
0.93750 0.00000 0.00000 1.0
0.93750 0.00000 0.00000 1.0
0.93750 0.00000 0.00000 1.0
0.50391 0.48047 0.77344 1.0
0.50391 0.48047 0.77344 1.0
0.50391 0.48047 0.77344 1.0
0.50391 0.48047 0.77344 1.0
0.50391 0.48047 0.77344 1.0
0.50391 0.48047 0.77344 1.0
0.50391 0.48047 0.77344 1.0
0.50391 0.48047 0.77344 1.0
0.50391 0.48047 0.77344 1.0
0.50391 0.48047 0.77344 1.0
0.50391 0.48047 0.77344 1.0
0.50391 0.48047 0.77344 1.0
0.50391 0.48047 0.77344 1.0
0.50391 0.48047 0.77344 1.0
0.50391 0.48047 0.77344 1.0
0.50391 0.48047 0.77344 1.0
0.50391 0.48047 0.77344 1.0
0.50391 0.48047 0.77344 1.0
0.93750 0.00000 0.00000 1.0
0.93750 0.00000 0.00000 1.0
0.93750 0.00000 0.00000 1.0
0.93750 0.00000 0.00000 1.0
0.93750 0.00000 0.00000 1.0
0.93750 0.00000 0.00000 1.0
0.93750 0.00000 0.00000 1.0
0.93750 0.00000 0.00000 1.0
0.93750 0.00000 0.00000 1.0
0.93750 0.00000 0.00000 1.0
0.93750 0.00000 0.00000 1.0
0.93750 0.00000 0.00000 1.0
0.93750 0.00000 0.00000 1.0
0.93750 0.00000 0.00000 1.0
0.93750 0.00000 0.00000 1.0
0.93750 0.00000 0.00000 1.0
0.93750 0.00000 0.00000 1.0
0.93750 0.00000 0.00000 1.0
0.93750 0.00000 0.00000 1.0
0.93750 0.00000 0.00000 1.0
0.93750 0.00000 0.00000 1.0
0.93750 0.00000 0.00000 1.0
0.93750 0.00000 0.00000 1.0
0.93750 0.00000 0.00000 1.0
0.93750 0.00000 0.00000 1.0
0.93750 0.00000 0.00000 1.0
0.93750 0.00000 0.00000 1.0
0.93750 0.00000 0.00000 1.0
0.93750 0.00000 0.00000 1.0
0.93750 0.00000 0.00000 1.0
0.93750 0.00000 0.00000 1.0
0.93750 0.00000 0.00000 1.0
0.93750 0.00000 0.00000 1.0
0.93750 0.00000 0.00000 1.0
0.93750 0.00000 0.00000 1.0
0.93750 0.00000 0.00000 1.0
0.50391 0.48047 0.77344 1.0
0.50391 0.48047 0.77344 1.0
0.50391 0.48047 0.77344 1.0
0.50391 0.48047 0.77344 1.0
0.50391 0.48047 0.77344 1.0
0.50391 0.48047 0.77344 1.0
0.50391 0.48047 0.77344 1.0
0.50391 0.48047 0.77344 1.0
0.50391 0.48047 0.77344 1.0
0.50391 0.48047 0.77344 1.0
0.50391 0.48047 0.77344 1.0
0.50391 0.48047 0.77344 1.0
0.50391 0.48047 0.77344 1.0
0.50391 0.48047 0.77344 1.0
0.50391 0.48047 0.77344 1.0
0.50391 0.48047 0.77344 1.0
0.50391 0.48047 0.77344 1.0
0.50391 0.48047 0.77344 1.0
0.93750 0.00000 0.00000 1.0
0.93750 0.00000 0.00000 1.0
0.93750 0.00000 0.00000 1.0
0.93750 0.00000 0.00000 1.0
0.93750 0.00000 0.00000 1.0
0.93750 0.00000 0.00000 1.0
0.93750 0.00000 0.00000 1.0
0.93750 0.00000 0.00000 1.0
0.93750 0.00000 0.00000 1.0
0.93750 0.00000 0.00000 1.0
0.93750 0.00000 0.00000 1.0
0.93750 0.00000 0.00000 1.0
0.93750 0.00000 0.00000 1.0
0.93750 0.00000 0.00000 1.0
0.93750 0.00000 0.00000 1.0
0.93750 0.00000 0.00000 1.0
0.93750 0.00000 0.00000 1.0
0.93750 0.00000 0.00000 1.0
0.50391 0.48047 0.77344 1.0
0.50391 0.48047 0.77344 1.0
0.50391 0.48047 0.77344 1.0
0.50391 0.48047 0.77344 1.0
0.50391 0.48047 0.77344 1.0
0.50391 0.48047 0.77344 1.0
0.50391 0.48047 0.77344 1.0
0.50391 0.48047 0.77344 1.0
0.50391 0.48047 0.77344 1.0
0.50391 0.48047 0.77344 1.0
0.50391 0.48047 0.77344 1.0
0.50391 0.48047 0.77344 1.0
0.50391 0.48047 0.77344 1.0
0.50391 0.48047 0.77344 1.0
0.50391 0.48047 0.77344 1.0
0.50391 0.48047 0.77344 1.0
0.50391 0.48047 0.77344 1.0
0.50391 0.48047 0.77344 1.0
0.93750 0.00000 0.00000 1.0
0.93750 0.00000 0.00000 1.0
0.93750 0.00000 0.00000 1.0
0.93750 0.00000 0.00000 1.0
0.93750 0.00000 0.00000 1.0
0.93750 0.00000 0.00000 1.0
0.93750 0.00000 0.00000 1.0
0.93750 0.00000 0.00000 1.0
0.93750 0.00000 0.00000 1.0
0.93750 0.00000 0.00000 1.0
0.93750 0.00000 0.00000 1.0
0.93750 0.00000 0.00000 1.0
0.93750 0.00000 0.00000 1.0
0.93750 0.00000 0.00000 1.0
0.93750 0.00000 0.00000 1.0
0.93750 0.00000 0.00000 1.0
0.93750 0.00000 0.00000 1.0
0.93750 0.00000 0.00000 1.0
0.33984 0.35156 0.37500 1.0
0.33984 0.35156 0.37500 1.0
0.33984 0.35156 0.37500 1.0
0.33984 0.35156 0.37500 1.0
0.33984 0.35156 0.37500 1.0
0.33984 0.35156 0.37500 1.0
0.33984 0.35156 0.37500 1.0
0.33984 0.35156 0.37500 1.0
0.33984 0.35156 0.37500 1.0
0.93750 0.00000 0.00000 1.0
0.93750 0.00000 0.00000 1.0
0.93750 0.00000 0.00000 1.0
0.93750 0.00000 0.00000 1.0
0.93750 0.00000 0.00000 1.0
0.93750 0.00000 0.00000 1.0
0.93750 0.00000 0.00000 1.0
0.93750 0.00000 0.00000 1.0
0.93750 0.00000 0.00000 1.0
0.93750 0.00000 0.00000 1.0
0.93750 0.00000 0.00000 1.0
0.93750 0.00000 0.00000 1.0
0.93750 0.00000 0.00000 1.0
0.93750 0.00000 0.00000 1.0
0.93750 0.00000 0.00000 1.0
0.93750 0.00000 0.00000 1.0
0.93750 0.00000 0.00000 1.0
0.93750 0.00000 0.00000 1.0
0.93750 0.00000 0.00000 1.0
0.93750 0.00000 0.00000 1.0
0.93750 0.00000 0.00000 1.0
0.93750 0.00000 0.00000 1.0
0.93750 0.00000 0.00000 1.0
0.93750 0.00000 0.00000 1.0
0.93750 0.00000 0.00000 1.0
0.93750 0.00000 0.00000 1.0
0.93750 0.00000 0.00000 1.0
0.93750 0.00000 0.00000 1.0
0.93750 0.00000 0.00000 1.0
0.93750 0.00000 0.00000 1.0
0.93750 0.00000 0.00000 1.0
0.93750 0.00000 0.00000 1.0
0.93750 0.00000 0.00000 1.0
0.93750 0.00000 0.00000 1.0
0.93750 0.00000 0.00000 1.0
0.93750 0.00000 0.00000 1.0

SCALARS Size_of_Sphere float
LOOKUP_TABLE default
0.4
0.4
0.4
0.4
0.4
0.4
0.4
0.4
0.4
0.4
0.4
0.4
0.4
0.4
0.4
0.4
0.4
0.4
0.4
0.4
0.4
0.4
0.4
0.4
0.4
0.4
0.4
0.4
0.4
0.4
0.4
0.4
0.4
0.4
0.4
0.4
0.3
0.3
0.3
0.3
0.3
0.3
0.3
0.3
0.3
0.3
0.3
0.3
0.3
0.3
0.3
0.3
0.3
0.3
0.4
0.4
0.4
0.4
0.4
0.4
0.4
0.4
0.4
0.4
0.4
0.4
0.4
0.4
0.4
0.4
0.4
0.4
0.3
0.3
0.3
0.3
0.3
0.3
0.3
0.3
0.3
0.3
0.3
0.3
0.3
0.3
0.3
0.3
0.3
0.3
0.4
0.4
0.4
0.4
0.4
0.4
0.4
0.4
0.4
0.4
0.4
0.4
0.4
0.4
0.4
0.4
0.4
0.4
0.4
0.4
0.4
0.4
0.4
0.4
0.4
0.4
0.4
0.4
0.4
0.4
0.4
0.4
0.4
0.4
0.4
0.4
0.3
0.3
0.3
0.3
0.3
0.3
0.3
0.3
0.3
0.3
0.3
0.3
0.3
0.3
0.3
0.3
0.3
0.3
0.4
0.4
0.4
0.4
0.4
0.4
0.4
0.4
0.4
0.4
0.4
0.4
0.4
0.4
0.4
0.4
0.4
0.4
0.3
0.3
0.3
0.3
0.3
0.3
0.3
0.3
0.3
0.3
0.3
0.3
0.3
0.3
0.3
0.3
0.3
0.3
0.4
0.4
0.4
0.4
0.4
0.4
0.4
0.4
0.4
0.4
0.4
0.4
0.4
0.4
0.4
0.4
0.4
0.4
0.5
0.5
0.5
0.5
0.5
0.5
0.5
0.5
0.5
0.4
0.4
0.4
0.4
0.4
0.4
0.4
0.4
0.4
0.4
0.4
0.4
0.4
0.4
0.4
0.4
0.4
0.4
0.4
0.4
0.4
0.4
0.4
0.4
0.4
0.4
0.4
0.4
0.4
0.4
0.4
0.4
0.4
0.4
0.4
0.4

CELL_DATA 614
SCALARS Color_of_Cells float
LOOKUP_TABLE default
0.3
0.3
0.3
0.3
0.3
0.3
0.3
0.3
0.3
0.3
0.3
0.3
0.3
0.3
0.3
0.3
0.3
0.3
0.3
0.3
0.3
0.3
0.3
0.3
0.3
0.3
0.3
0.3
0.3
0.3
0.3
0.3
0.3
0.3
0.3
0.3
0.3
0.3
0.3
0.3
0.3
0.3
0.3
0.3
0.3
0.3
0.3
0.3
0.3
0.3
0.3
0.3
0.3
0.3
0.3
0.3
0.3
0.3
0.3
0.3
0.3
0.3
0.3
0.3
0.3
0.3
0.3
0.3
0.3
0.3
0.3
0.3
0.3
0.3
0.3
0.3
0.3
0.3
0.3
0.3
0.3
0.3
0.3
0.3
0.3
0.3
0.3
0.3
0.3
0.3
0.3
0.3
0.3
0.3
0.3
0.3
0.3
0.3
0.3
0.3
0.3
0.3
0.3
0.3
0.3
0.3
0.3
0.3
0.3
0.3
0.3
0.3
0.3
0.3
0.3
0.3
0.3
0.3
0.3
0.3
0.3
0.3
0.3
0.3
0.3
0.3
0.3
0.3
0.3
0.3
0.3
0.3
0.3
0.3
0.3
0.3
0.3
0.3
0.3
0.3
0.3
0.3
0.3
0.3
0.3
0.3
0.3
0.3
0.3
0.3
0.3
0.3
0.3
0.3
0.3
0.3
0.3
0.3
0.3
0.3
0.3
0.3
0.3
0.3
0.3
0.3
0.3
0.3
0.3
0.3
0.3
0.3
0.3
0.3
0.3
0.3
0.3
0.3
0.3
0.3
0.3
0.3
0.3
0.3
0.3
0.3
0.3
0.3
0.3
0.3
0.3
0.3
0.3
0.3
0.3
0.3
0.3
0.3
0.3
0.3
0.3
0.3
0.3
0.3
0.3
0.3
0.3
0.3
0.3
0.3
0.3
0.3
0.3
0.3
0.3
0.3
0.3
0.3
0.3
0.3
0.3
0.3
0.3
0.3
0.3
0.3
0.3
0.3
0.3
0.3
0.3
0.3
0.3
0.3
0.3
0.3
0.3
0.3
0.3
0.3
0.3
0.3
0.3
0.3
0.3
0.3
0.3
0.3
0.3
0.3
0.3
0.3
0.3
0.3
0.3
0.3
0.3
0.3
0.3
0.3
0.3
0.3
0.3
0.3
0.3
0.3
0.3
0.3
0.3
0.3
0.3
0.3
0.3
0.3
0.3
0.3
0.3
0.3
0.3
0.3
0.3
0.3
0.3
0.3
0.3
0.3
0.3
0.3
0.3
0.3
0.3
0.3
0.3
0.3
0.3
0.3
0.3
0.3
0.3
0.3
0.3
0.3
0.3
0.3
0.3
0.3
0.3
0.3
0.3
0.3
0.3
0.3
0.3
0.3
0.3
0.3
0.3
0.3
0.3
0.3
0.3
0.3
0.3
0.3
0.3
0.3
0.3
0.3
0.3
0.3
0.3
0.3
0.3
0.3
0.3
0.3
0.3
0.3
0.3
0.3
0.3
0.3
0.3
0.3
0.3
0.3
0.3
0.3
0.3
0.3
0.3
0.3
0.3
0.3
0.3
0.3
0.3
0.3
0.3
0.3
0.3
0.3
0.3
0.3
0.3
0.3
0.3
0.3
0.3
0.3
0.3
0.3
0.3
0.3
0.3
0.3
0.3
0.3
0.3
0.3
0.3
0.3
0.3
0.3
0.3
0.3
0.3
0.3
0.3
0.3
0.3
0.3
0.3
0.3
0.3
0.3
0.3
0.3
0.3
0.3
0.3
0.3
0.3
0.3
0.3
0.3
0.3
0.3
0.3
0.3
0.3
0.3
0.3
0.3
0.3
0.3
0.3
0.3
0.3
0.3
0.3
0.3
0.3
0.3
0.3
0.3
0.3
0.3
0.3
0.3
0.3
0.3
0.3
0.3
0.3
0.3
0.3
0.3
0.3
0.3
0.3
0.3
0.3
0.3
0.3
0.3
0.3
0.3
0.3
0.3
0.3
0.3
0.3
0.3
0.3
0.3
0.3
0.3
0.3
0.3
0.3
0.3
0.3
0.3
0.3
0.3
0.3
0.3
0.3
0.3
0.3
0.3
0.3
0.3
0.3
0.3
0.3
0.3
0.3
0.3
0.3
0.3
0.3
0.3
0.3
0.3
0.3
0.3
0.3
0.3
0.3
0.3
0.3
0.3
0.3
0.3
0.3
0.3
0.3
0.3
0.3
0.3
0.3
0.3
0.3
0.3
0.3
0.3
0.3
0.3
0.3
0.3
0.3
0.3
0.3
0.3
0.3
0.3
0.3
0.3
0.3
0.3
0.3
0.3
0.3
0.3
0.3
0.3
0.3
0.3
0.3
0.3
0.3
0.3
0.3
0.3
0.3
0.3
0.3
0.3
0.3
0.3
0.3
0.3
0.3
0.3
0.3
0.3
0.3
0.3
0.3
0.3
0.3
0.3
0.3
0.3
0.3
0.3
0.3
0.3
0.3
0.3
0.3
0.3
0.3
0.3
0.3
0.3
0.3
0.3
0.3
0.3
0.3
0.3
0.3
0.3
0.3
0.3
0.3
0.3
0.3
0.3
0.3
0.3
0.3
0.3
0.3
0.3
0.3
0.3
0.3
0.3
0.3
0.3
0.3
0.3
0.3
0.3
0.3
0.3
0.3
0.3
0.3
0.3
0.3
0.3
0.3
0.3
0.3
0.3
0.3
0.3
0.3
0.3

SCALARS Size_of_Cells float
LOOKUP_TABLE default
0.3
0.3
0.3
0.3
0.3
0.3
0.3
0.3
0.3
0.3
0.3
0.3
0.3
0.3
0.3
0.3
0.3
0.3
0.3
0.3
0.3
0.3
0.3
0.3
0.3
0.3
0.3
0.3
0.3
0.3
0.3
0.3
0.3
0.3
0.3
0.3
0.3
0.3
0.3
0.3
0.3
0.3
0.3
0.3
0.3
0.3
0.3
0.3
0.3
0.3
0.3
0.3
0.3
0.3
0.3
0.3
0.3
0.3
0.3
0.3
0.3
0.3
0.3
0.3
0.3
0.3
0.3
0.3
0.3
0.3
0.3
0.3
0.3
0.3
0.3
0.3
0.3
0.3
0.3
0.3
0.3
0.3
0.3
0.3
0.3
0.3
0.3
0.3
0.3
0.3
0.3
0.3
0.3
0.3
0.3
0.3
0.3
0.3
0.3
0.3
0.3
0.3
0.3
0.3
0.3
0.3
0.3
0.3
0.3
0.3
0.3
0.3
0.3
0.3
0.3
0.3
0.3
0.3
0.3
0.3
0.3
0.3
0.3
0.3
0.3
0.3
0.3
0.3
0.3
0.3
0.3
0.3
0.3
0.3
0.3
0.3
0.3
0.3
0.3
0.3
0.3
0.3
0.3
0.3
0.3
0.3
0.3
0.3
0.3
0.3
0.3
0.3
0.3
0.3
0.3
0.3
0.3
0.3
0.3
0.3
0.3
0.3
0.3
0.3
0.3
0.3
0.3
0.3
0.3
0.3
0.3
0.3
0.3
0.3
0.3
0.3
0.3
0.3
0.3
0.3
0.3
0.3
0.3
0.3
0.3
0.3
0.3
0.3
0.3
0.3
0.3
0.3
0.3
0.3
0.3
0.3
0.3
0.3
0.3
0.3
0.3
0.3
0.3
0.3
0.3
0.3
0.3
0.3
0.3
0.3
0.3
0.3
0.3
0.3
0.3
0.3
0.3
0.3
0.3
0.3
0.3
0.3
0.3
0.3
0.3
0.3
0.3
0.3
0.3
0.3
0.3
0.3
0.3
0.3
0.3
0.3
0.3
0.3
0.3
0.3
0.3
0.3
0.3
0.3
0.3
0.3
0.3
0.3
0.3
0.3
0.3
0.3
0.3
0.3
0.3
0.3
0.3
0.3
0.3
0.3
0.3
0.3
0.3
0.3
0.3
0.3
0.3
0.3
0.3
0.3
0.3
0.3
0.3
0.3
0.3
0.3
0.3
0.3
0.3
0.3
0.3
0.3
0.3
0.3
0.3
0.3
0.3
0.3
0.3
0.3
0.3
0.3
0.3
0.3
0.3
0.3
0.3
0.3
0.3
0.3
0.3
0.3
0.3
0.3
0.3
0.3
0.3
0.3
0.3
0.3
0.3
0.3
0.3
0.3
0.3
0.3
0.3
0.3
0.3
0.3
0.3
0.3
0.3
0.3
0.3
0.3
0.3
0.3
0.3
0.3
0.3
0.3
0.3
0.3
0.3
0.3
0.3
0.3
0.3
0.3
0.3
0.3
0.3
0.3
0.3
0.3
0.3
0.3
0.3
0.3
0.3
0.3
0.3
0.3
0.3
0.3
0.3
0.3
0.3
0.3
0.3
0.3
0.3
0.3
0.3
0.3
0.3
0.3
0.3
0.3
0.3
0.3
0.3
0.3
0.3
0.3
0.3
0.3
0.3
0.3
0.3
0.3
0.3
0.3
0.3
0.3
0.3
0.3
0.3
0.3
0.3
0.3
0.3
0.3
0.3
0.3
0.3
0.3
0.3
0.3
0.3
0.3
0.3
0.3
0.3
0.3
0.3
0.3
0.3
0.3
0.3
0.3
0.3
0.3
0.3
0.3
0.3
0.3
0.3
0.3
0.3
0.3
0.3
0.3
0.3
0.3
0.3
0.3
0.3
0.3
0.3
0.3
0.3
0.3
0.3
0.3
0.3
0.3
0.3
0.3
0.3
0.3
0.3
0.3
0.3
0.3
0.3
0.3
0.3
0.3
0.3
0.3
0.3
0.3
0.3
0.3
0.3
0.3
0.3
0.3
0.3
0.3
0.3
0.3
0.3
0.3
0.3
0.3
0.3
0.3
0.3
0.3
0.3
0.3
0.3
0.3
0.3
0.3
0.3
0.3
0.3
0.3
0.3
0.3
0.3
0.3
0.3
0.3
0.3
0.3
0.3
0.3
0.3
0.3
0.3
0.3
0.3
0.3
0.3
0.3
0.3
0.3
0.3
0.3
0.3
0.3
0.3
0.3
0.3
0.3
0.3
0.3
0.3
0.3
0.3
0.3
0.3
0.3
0.3
0.3
0.3
0.3
0.3
0.3
0.3
0.3
0.3
0.3
0.3
0.3
0.3
0.3
0.3
0.3
0.3
0.3
0.3
0.3
0.3
0.3
0.3
0.3
0.3
0.3
0.3
0.3
0.3
0.3
0.3
0.3
0.3
0.3
0.3
0.3
0.3
0.3
0.3
0.3
0.3
0.3
0.3
0.3
0.3
0.3
0.3
0.3
0.3
0.3
0.3
0.3
0.3
0.3
0.3
0.3
0.3
0.3
0.3
0.3
0.3
0.3
0.3
0.3
0.3
0.3
0.3
0.3
0.3
0.3
0.3
0.3
0.3
0.3
0.3
0.3
0.3
0.3
0.3
0.3
0.3
0.3
0.3
0.3
0.3
0.3
0.3
0.3
0.3
0.3
0.3
0.3
0.3
0.3
0.3
0.3