# vtk DataFile Version 5.10.1
vtk file formated from the xyz file of structure model
ASCII
DATASET POLYDATA
POINTS 243 FLOAT
4.2672 4.0049 8.0857
4.2672 9.4389 8.0857
4.2672 14.8729 8.0857
9.3052 4.0049 8.0857
9.3052 9.4389 8.0857
9.3052 14.8729 8.0857
14.3432 4.0049 8.0857
14.3432 9.4389 8.0857
14.3432 14.8729 8.0857
3.2898 1.2824 8.0857
3.2898 6.7164 8.0857
3.2898 12.1504 8.0857
8.3278 1.2824 8.0857
8.3278 6.7164 8.0857
8.3278 12.1504 8.0857
13.3658 1.2824 8.0857
13.3658 6.7164 8.0857
13.3658 12.1504 8.0857
1.7482 4.9123 6.6557
1.7482 10.3463 6.6557
1.7482 15.7803 6.6557
6.7862 4.9123 6.6557
6.7862 10.3463 6.6557
6.7862 15.7803 6.6557
11.8242 4.9123 6.6557
11.8242 10.3463 6.6557
11.8242 15.7803 6.6557
0.7708 2.1899 6.6557
0.7708 7.6239 6.6557
0.7708 13.0579 6.6557
5.8088 2.1899 6.6557
5.8088 7.6239 6.6557
5.8088 13.0579 6.6557
10.8468 2.1899 6.6557
10.8468 7.6239 6.6557
10.8468 13.0579 6.6557
0.0000 4.1353 6.3019
0.0000 9.5693 6.3019
0.0000 15.0033 6.3019
5.0380 4.1353 6.3019
5.0380 9.5693 6.3019
5.0380 15.0033 6.3019
10.0760 4.1353 6.3019
10.0760 9.5693 6.3019
10.0760 15.0033 6.3019
2.5190 1.4128 6.3019
2.5190 6.8468 6.3019
2.5190 12.2808 6.3019
7.5570 1.4128 6.3019
7.5570 6.8468 6.3019
7.5570 12.2808 6.3019
12.5950 1.4128 6.3019
12.5950 6.8468 6.3019
12.5950 12.2808 6.3019
3.4964 2.9072 5.5280
3.4964 8.3412 5.5280
3.4964 13.7752 5.5280
8.5344 2.9072 5.5280
8.5344 8.3412 5.5280
8.5344 13.7752 5.5280
13.5724 2.9072 5.5280
13.5724 8.3412 5.5280
13.5724 13.7752 5.5280
4.0606 0.1902 5.5280
4.0606 5.6242 5.5280
4.0606 11.0582 5.5280
9.0986 0.1902 5.5280
9.0986 5.6242 5.5280
9.0986 11.0582 5.5280
14.1366 0.1902 5.5280
14.1366 5.6242 5.5280
14.1366 11.0582 5.5280
2.5190 4.4015 4.7541
2.5190 9.8355 4.7541
2.5190 15.2695 4.7541
7.5570 4.4015 4.7541
7.5570 9.8355 4.7541
7.5570 15.2695 4.7541
12.5950 4.4015 4.7541
12.5950 9.8355 4.7541
12.5950 15.2695 4.7541
0.0000 1.6845 4.7541
0.0000 7.1185 4.7541
0.0000 12.5525 4.7541
5.0380 1.6845 4.7541
5.0380 7.1185 4.7541
5.0380 12.5525 4.7541
10.0760 1.6845 4.7541
10.0760 7.1185 4.7541
10.0760 12.5525 4.7541
0.7708 3.6245 4.4003
0.7708 9.0585 4.4003
0.7708 14.4925 4.4003
5.8088 3.6245 4.4003
5.8088 9.0585 4.4003
5.8088 14.4925 4.4003
10.8468 3.6245 4.4003
10.8468 9.0585 4.4003
10.8468 14.4925 4.4003
1.7482 0.9075 4.4003
1.7482 6.3415 4.4003
1.7482 11.7755 4.4003
6.7862 0.9075 4.4003
6.7862 6.3415 4.4003
6.7862 11.7755 4.4003
11.8242 0.9075 4.4003
11.8242 6.3415 4.4003
11.8242 11.7755 4.4003
3.2898 4.5314 2.9704
3.2898 9.9654 2.9704
3.2898 15.3994 2.9704
8.3278 4.5314 2.9704
8.3278 9.9654 2.9704
8.3278 15.3994 2.9704
13.3658 4.5314 2.9704
13.3658 9.9654 2.9704
13.3658 15.3994 2.9704
4.2672 1.8144 2.9704
4.2672 7.2484 2.9704
4.2672 12.6824 2.9704
9.3052 1.8144 2.9704
9.3052 7.2484 2.9704
9.3052 12.6824 2.9704
14.3432 1.8144 2.9704
14.3432 7.2484 2.9704
14.3432 12.6824 2.9704
0.0000 3.7544 2.6166
0.0000 9.1883 2.6166
0.0000 14.6224 2.6166
5.0380 3.7544 2.6166
5.0380 9.1883 2.6166
5.0380 14.6224 2.6166
10.0760 3.7544 2.6166
10.0760 9.1883 2.6166
10.0760 14.6224 2.6166
2.5190 1.0373 2.6166
2.5190 6.4714 2.6166
2.5190 11.9054 2.6166
7.5570 1.0373 2.6166
7.5570 6.4714 2.6166
7.5570 11.9054 2.6166
12.5950 1.0373 2.6166
12.5950 6.4714 2.6166
12.5950 11.9054 2.6166
1.5416 2.5317 1.8427
1.5416 7.9657 1.8427
1.5416 13.3997 1.8427
6.5796 2.5317 1.8427
6.5796 7.9657 1.8427
6.5796 13.3997 1.8427
11.6176 2.5317 1.8427
11.6176 7.9657 1.8427
11.6176 13.3997 1.8427
0.9774 -0.1907 1.8427
0.9774 5.2433 1.8427
0.9774 10.6773 1.8427
6.0154 -0.1907 1.8427
6.0154 5.2433 1.8427
6.0154 10.6773 1.8427
11.0534 -0.1907 1.8427
11.0534 5.2433 1.8427
11.0534 10.6773 1.8427
2.5190 4.0260 1.0688
2.5190 9.4600 1.0688
2.5190 14.8941 1.0688
7.5570 4.0260 1.0688
7.5570 9.4600 1.0688
7.5570 14.8941 1.0688
12.5950 4.0260 1.0688
12.5950 9.4600 1.0688
12.5950 14.8941 1.0688
0.0000 1.3036 1.0688
0.0000 6.7376 1.0688
0.0000 12.1716 1.0688
5.0380 1.3036 1.0688
5.0380 6.7376 1.0688
5.0380 12.1716 1.0688
10.0760 1.3036 1.0688
10.0760 6.7376 1.0688
10.0760 12.1716 1.0688
4.2672 3.2490 0.7150
4.2672 8.6830 0.7150
4.2672 14.1170 0.7150
9.3052 3.2490 0.7150
9.3052 8.6830 0.7150
9.3052 14.1170 0.7150
14.3432 3.2490 0.7150
14.3432 8.6830 0.7150
14.3432 14.1170 0.7150
3.2898 0.5266 0.7150
3.2898 5.9606 0.7150
3.2898 11.3946 0.7150
8.3278 0.5266 0.7150
8.3278 5.9606 0.7150
8.3278 11.3946 0.7150
13.3658 0.5266 0.7150
13.3658 5.9606 0.7150
13.3658 11.3946 0.7150
5.4370 2.0482 9.1632
5.4370 7.4822 9.1632
5.4370 12.9162 9.1632
10.4750 2.0482 9.1632
10.4750 7.4822 9.1632
10.4750 12.9162 9.1632
15.5130 2.0482 9.1632
15.5130 7.4822 9.1632
15.5130 12.9162 9.1632
3.7785 1.2851 9.0857
3.7785 6.7191 9.0857
3.7785 12.1531 9.0857
8.8165 1.2851 9.0857
8.8165 6.7191 9.0857
8.8165 12.1531 9.0857
13.8545 1.2851 9.0857
13.8545 6.7191 9.0857
13.8545 12.1531 9.0857
3.7785 4.0021 9.0857
3.7785 9.4361 9.0857
3.7785 14.8701 9.0857
8.8165 4.0021 9.0857
8.8165 9.4361 9.0857
8.8165 14.8701 9.0857
13.8545 4.0021 9.0857
13.8545 9.4361 9.0857
13.8545 14.8701 9.0857
3.7785 1.2851 9.0857
3.7785 6.7191 9.0857
3.7785 12.1531 9.0857
8.8165 1.2851 9.0857
8.8165 6.7191 9.0857
8.8165 12.1531 9.0857
13.8545 1.2851 9.0857
13.8545 6.7191 9.0857
13.8545 12.1531 9.0857
3.7785 4.0021 9.0857
3.7785 9.4361 9.0857
3.7785 14.8701 9.0857
8.8165 4.0021 9.0857
8.8165 9.4361 9.0857
8.8165 14.8701 9.0857
13.8545 4.0021 9.0857
13.8545 9.4361 9.0857
13.8545 14.8701 9.0857
POLYGONS 256 1024
3 0 21 30
3 0 21 64
3 0 54 30
3 0 54 64
3 93 21 30
3 93 21 64
3 93 54 30
3 93 54 64
3 1 22 31
3 1 22 65
3 1 55 31
3 1 55 65
3 94 22 31
3 94 22 65
3 94 55 31
3 94 55 65
3 3 24 33
3 3 24 67
3 3 57 33
3 3 57 67
3 96 24 33
3 96 24 67
3 96 57 33
3 96 57 67
3 4 25 34
3 4 25 68
3 4 58 34
3 4 58 68
3 97 25 34
3 97 25 68
3 97 58 34
3 97 58 68
3 10 18 28
3 10 18 64
3 10 55 28
3 10 55 64
3 100 18 28
3 100 18 64
3 100 55 28
3 100 55 64
3 11 19 29
3 11 19 65
3 11 56 29
3 11 56 65
3 101 19 29
3 101 19 65
3 101 56 29
3 101 56 65
3 13 21 31
3 13 21 67
3 13 58 31
3 13 58 67
3 103 21 31
3 103 21 67
3 103 58 31
3 103 58 67
3 14 22 32
3 14 22 68
3 14 59 32
3 14 59 68
3 104 22 32
3 104 22 68
3 104 59 32
3 104 59 68
3 16 24 34
3 16 24 70
3 16 61 34
3 16 61 70
3 106 24 34
3 106 24 70
3 106 61 34
3 106 61 70
3 17 25 35
3 17 25 71
3 17 62 35
3 17 62 71
3 107 25 35
3 107 25 71
3 107 62 35
3 107 62 71
3 18 54 64
3 18 54 90
3 18 100 64
3 18 100 90
3 108 54 64
3 108 54 90
3 108 100 64
3 108 100 90
3 19 55 65
3 19 55 91
3 19 101 65
3 19 101 91
3 109 55 65
3 109 55 91
3 109 101 65
3 109 101 91
3 21 57 67
3 21 57 93
3 21 103 67
3 21 103 93
3 111 57 67
3 111 57 93
3 111 103 67
3 111 103 93
3 22 58 68
3 22 58 94
3 22 104 68
3 22 104 94
3 112 58 68
3 112 58 94
3 112 104 68
3 112 104 94
3 24 60 70
3 24 60 96
3 24 106 70
3 24 106 96
3 114 60 70
3 114 60 96
3 114 106 70
3 114 106 96
3 25 61 71
3 25 61 97
3 25 107 71
3 25 107 97
3 115 61 71
3 115 61 97
3 115 107 71
3 115 107 97
3 30 54 63
3 30 54 93
3 30 102 63
3 30 102 93
3 117 54 63
3 117 54 93
3 117 102 63
3 117 102 93
3 31 55 64
3 31 55 94
3 31 103 64
3 31 103 94
3 118 55 64
3 118 55 94
3 118 103 64
3 118 103 94
3 32 56 65
3 32 56 95
3 32 104 65
3 32 104 95
3 119 56 65
3 119 56 95
3 119 104 65
3 119 104 95
3 33 57 66
3 33 57 96
3 33 105 66
3 33 105 96
3 120 57 66
3 120 57 96
3 120 105 66
3 120 105 96
3 34 58 67
3 34 58 97
3 34 106 67
3 34 106 97
3 121 58 67
3 121 58 97
3 121 106 67
3 121 106 97
3 35 59 68
3 35 59 98
3 35 107 68
3 35 107 98
3 122 59 68
3 122 59 98
3 122 107 68
3 122 107 98
3 93 108 117
3 93 108 157
3 93 147 117
3 93 147 157
3 180 108 117
3 180 108 157
3 180 147 117
3 180 147 157
3 94 109 118
3 94 109 158
3 94 148 118
3 94 148 158
3 181 109 118
3 181 109 158
3 181 148 118
3 181 148 158
3 96 111 120
3 96 111 160
3 96 150 120
3 96 150 160
3 183 111 120
3 183 111 160
3 183 150 120
3 183 150 160
3 97 112 121
3 97 112 161
3 97 151 121
3 97 151 161
3 184 112 121
3 184 112 161
3 184 151 121
3 184 151 161
3 100 108 118
3 100 108 154
3 100 145 118
3 100 145 154
3 190 108 118
3 190 108 154
3 190 145 118
3 190 145 154
3 101 109 119
3 101 109 155
3 101 146 119
3 101 146 155
3 191 109 119
3 191 109 155
3 191 146 119
3 191 146 155
3 103 111 121
3 103 111 157
3 103 148 121
3 103 148 157
3 193 111 121
3 193 111 157
3 193 148 121
3 193 148 157
3 104 112 122
3 104 112 158
3 104 149 122
3 104 149 158
3 194 112 122
3 194 112 158
3 194 149 122
3 194 149 158
3 106 114 124
3 106 114 160
3 106 151 124
3 106 151 160
3 196 114 124
3 196 114 160
3 196 151 124
3 196 151 160
3 107 115 125
3 107 115 161
3 107 152 125
3 107 152 161
3 197 115 125
3 197 115 161
3 197 152 125
3 197 152 161
LINES 355 1065
2 36 18
2 36 27
2 36 90
2 37 19
2 37 28
2 37 91
2 38 20
2 38 29
2 38 92
2 39 0
2 39 21
2 39 30
2 39 54
2 39 64
2 39 93
2 40 1
2 40 22
2 40 31
2 40 55
2 40 65
2 40 94
2 41 2
2 41 23
2 41 32
2 41 56
2 41 95
2 42 3
2 42 24
2 42 33
2 42 57
2 42 67
2 42 96
2 43 4
2 43 25
2 43 34
2 43 58
2 43 68
2 43 97
2 44 5
2 44 26
2 44 35
2 44 59
2 44 98
2 45 9
2 45 27
2 45 54
2 45 63
2 45 99
2 46 10
2 46 18
2 46 28
2 46 55
2 46 64
2 46 100
2 47 11
2 47 19
2 47 29
2 47 56
2 47 65
2 47 101
2 48 12
2 48 30
2 48 57
2 48 66
2 48 102
2 49 13
2 49 21
2 49 31
2 49 58
2 49 67
2 49 103
2 50 14
2 50 22
2 50 32
2 50 59
2 50 68
2 50 104
2 51 15
2 51 33
2 51 60
2 51 69
2 51 105
2 52 16
2 52 24
2 52 34
2 52 61
2 52 70
2 52 106
2 53 17
2 53 25
2 53 35
2 53 62
2 53 71
2 53 107
2 72 18
2 72 54
2 72 64
2 72 90
2 72 100
2 72 108
2 73 19
2 73 55
2 73 65
2 73 91
2 73 101
2 73 109
2 74 20
2 74 56
2 74 92
2 74 110
2 75 21
2 75 57
2 75 67
2 75 93
2 75 103
2 75 111
2 76 22
2 76 58
2 76 68
2 76 94
2 76 104
2 76 112
2 77 23
2 77 59
2 77 95
2 77 113
2 78 24
2 78 60
2 78 70
2 78 96
2 78 106
2 78 114
2 79 25
2 79 61
2 79 71
2 79 97
2 79 107
2 79 115
2 80 26
2 80 62
2 80 98
2 80 116
2 81 27
2 81 90
2 81 99
2 82 28
2 82 91
2 82 100
2 83 29
2 83 92
2 83 101
2 84 30
2 84 54
2 84 63
2 84 93
2 84 102
2 84 117
2 85 31
2 85 55
2 85 64
2 85 94
2 85 103
2 85 118
2 86 32
2 86 56
2 86 65
2 86 95
2 86 104
2 86 119
2 87 33
2 87 57
2 87 66
2 87 96
2 87 105
2 87 120
2 88 34
2 88 58
2 88 67
2 88 97
2 88 106
2 88 121
2 89 35
2 89 59
2 89 68
2 89 98
2 89 107
2 89 122
2 126 90
2 126 144
2 126 154
2 127 91
2 127 145
2 127 155
2 128 92
2 128 146
2 129 93
2 129 108
2 129 117
2 129 147
2 129 157
2 129 180
2 130 94
2 130 109
2 130 118
2 130 148
2 130 158
2 130 181
2 131 95
2 131 110
2 131 119
2 131 149
2 131 182
2 132 96
2 132 111
2 132 120
2 132 150
2 132 160
2 132 183
2 133 97
2 133 112
2 133 121
2 133 151
2 133 161
2 133 184
2 134 98
2 134 113
2 134 122
2 134 152
2 134 185
2 135 99
2 135 117
2 135 144
2 135 153
2 135 189
2 136 100
2 136 108
2 136 118
2 136 145
2 136 154
2 136 190
2 137 101
2 137 109
2 137 119
2 137 146
2 137 155
2 137 191
2 138 102
2 138 120
2 138 147
2 138 156
2 138 192
2 139 103
2 139 111
2 139 121
2 139 148
2 139 157
2 139 193
2 140 104
2 140 112
2 140 122
2 140 149
2 140 158
2 140 194
2 141 105
2 141 123
2 141 150
2 141 159
2 141 195
2 142 106
2 142 114
2 142 124
2 142 151
2 142 160
2 142 196
2 143 107
2 143 115
2 143 125
2 143 152
2 143 161
2 143 197
2 162 108
2 162 144
2 162 154
2 162 180
2 162 190
2 163 109
2 163 145
2 163 155
2 163 181
2 163 191
2 164 110
2 164 146
2 164 182
2 165 111
2 165 147
2 165 157
2 165 183
2 165 193
2 166 112
2 166 148
2 166 158
2 166 184
2 166 194
2 167 113
2 167 149
2 167 185
2 168 114
2 168 150
2 168 160
2 168 186
2 168 196
2 169 115
2 169 151
2 169 161
2 169 187
2 169 197
2 170 116
2 170 152
2 170 188
2 171 144
2 171 153
2 172 145
2 172 154
2 173 146
2 173 155
2 174 117
2 174 147
2 174 156
2 174 180
2 174 189
2 175 118
2 175 148
2 175 157
2 175 181
2 175 190
2 176 119
2 176 149
2 176 158
2 176 182
2 176 191
2 177 120
2 177 150
2 177 159
2 177 183
2 177 192
2 178 121
2 178 151
2 178 160
2 178 184
2 178 193
2 179 122
2 179 152
2 179 161
2 179 185
2 179 194

POINT_DATA 243
SCALARS Color_of_Sphere float
LOOKUP_TABLE table_point
0.6
0.6
0.6
0.6
0.6
0.6
0.6
0.6
0.6
0.6
0.6
0.6
0.6
0.6
0.6
0.6
0.6
0.6
0.6
0.6
0.6
0.6
0.6
0.6
0.6
0.6
0.6
0.6
0.6
0.6
0.6
0.6
0.6
0.6
0.6
0.6
0.3
0.3
0.3
0.3
0.3
0.3
0.3
0.3
0.3
0.3
0.3
0.3
0.3
0.3
0.3
0.3
0.3
0.3
0.6
0.6
0.6
0.6
0.6
0.6
0.6
0.6
0.6
0.6
0.6
0.6
0.6
0.6
0.6
0.6
0.6
0.6
0.3
0.3
0.3
0.3
0.3
0.3
0.3
0.3
0.3
0.3
0.3
0.3
0.3
0.3
0.3
0.3
0.3
0.3
0.6
0.6
0.6
0.6
0.6
0.6
0.6
0.6
0.6
0.6
0.6
0.6
0.6
0.6
0.6
0.6
0.6
0.6
0.6
0.6
0.6
0.6
0.6
0.6
0.6
0.6
0.6
0.6
0.6
0.6
0.6
0.6
0.6
0.6
0.6
0.6
0.3
0.3
0.3
0.3
0.3
0.3
0.3
0.3
0.3
0.3
0.3
0.3
0.3
0.3
0.3
0.3
0.3
0.3
0.6
0.6
0.6
0.6
0.6
0.6
0.6
0.6
0.6
0.6
0.6
0.6
0.6
0.6
0.6
0.6
0.6
0.6
0.3
0.3
0.3
0.3
0.3
0.3
0.3
0.3
0.3
0.3
0.3
0.3
0.3
0.3
0.3
0.3
0.3
0.3
0.6
0.6
0.6
0.6
0.6
0.6
0.6
0.6
0.6
0.6
0.6
0.6
0.6
0.6
0.6
0.6
0.6
0.6
0.0
0.0
0.0
0.0
0.0
0.0
0.0
0.0
0.0
0.6
0.6
0.6
0.6
0.6
0.6
0.6
0.6
0.6
0.6
0.6
0.6
0.6
0.6
0.6
0.6
0.6
0.6
0.6
0.6
0.6
0.6
0.6
0.6
0.6
0.6
0.6
0.6
0.6
0.6
0.6
0.6
0.6
0.6
0.6
0.6
LOOKUP_TABLE table_point 243
0.93750 0.00000 0.00000 1.0
0.93750 0.00000 0.00000 1.0
0.93750 0.00000 0.00000 1.0
0.93750 0.00000 0.00000 1.0
0.93750 0.00000 0.00000 1.0
0.93750 0.00000 0.00000 1.0
0.93750 0.00000 0.00000 1.0
0.93750 0.00000 0.00000 1.0
0.93750 0.00000 0.00000 1.0
0.93750 0.00000 0.00000 1.0
0.93750 0.00000 0.00000 1.0
0.93750 0.00000 0.00000 1.0
0.93750 0.00000 0.00000 1.0
0.93750 0.00000 0.00000 1.0
0.93750 0.00000 0.00000 1.0
0.93750 0.00000 0.00000 1.0
0.93750 0.00000 0.00000 1.0
0.93750 0.00000 0.00000 1.0
0.93750 0.00000 0.00000 1.0
0.93750 0.00000 0.00000 1.0
0.93750 0.00000 0.00000 1.0
0.93750 0.00000 0.00000 1.0
0.93750 0.00000 0.00000 1.0
0.93750 0.00000 0.00000 1.0
0.93750 0.00000 0.00000 1.0
0.93750 0.00000 0.00000 1.0
0.93750 0.00000 0.00000 1.0
0.93750 0.00000 0.00000 1.0
0.93750 0.00000 0.00000 1.0
0.93750 0.00000 0.00000 1.0
0.93750 0.00000 0.00000 1.0
0.93750 0.00000 0.00000 1.0
0.93750 0.00000 0.00000 1.0
0.93750 0.00000 0.00000 1.0
0.93750 0.00000 0.00000 1.0
0.93750 0.00000 0.00000 1.0
0.50391 0.48047 0.77344 1.0
0.50391 0.48047 0.77344 1.0
0.50391 0.48047 0.77344 1.0
0.50391 0.48047 0.77344 1.0
0.50391 0.48047 0.77344 1.0
0.50391 0.48047 0.77344 1.0
0.50391 0.48047 0.77344 1.0
0.50391 0.48047 0.77344 1.0
0.50391 0.48047 0.77344 1.0
0.50391 0.48047 0.77344 1.0
0.50391 0.48047 0.77344 1.0
0.50391 0.48047 0.77344 1.0
0.50391 0.48047 0.77344 1.0
0.50391 0.48047 0.77344 1.0
0.50391 0.48047 0.77344 1.0
0.50391 0.48047 0.77344 1.0
0.50391 0.48047 0.77344 1.0
0.50391 0.48047 0.77344 1.0
0.93750 0.00000 0.00000 1.0
0.93750 0.00000 0.00000 1.0
0.93750 0.00000 0.00000 1.0
0.93750 0.00000 0.00000 1.0
0.93750 0.00000 0.00000 1.0
0.93750 0.00000 0.00000 1.0
0.93750 0.00000 0.00000 1.0
0.93750 0.00000 0.00000 1.0
0.93750 0.00000 0.00000 1.0
0.93750 0.00000 0.00000 1.0
0.93750 0.00000 0.00000 1.0
0.93750 0.00000 0.00000 1.0
0.93750 0.00000 0.00000 1.0
0.93750 0.00000 0.00000 1.0
0.93750 0.00000 0.00000 1.0
0.93750 0.00000 0.00000 1.0
0.93750 0.00000 0.00000 1.0
0.93750 0.00000 0.00000 1.0
0.50391 0.48047 0.77344 1.0
0.50391 0.48047 0.77344 1.0
0.50391 0.48047 0.77344 1.0
0.50391 0.48047 0.77344 1.0
0.50391 0.48047 0.77344 1.0
0.50391 0.48047 0.77344 1.0
0.50391 0.48047 0.77344 1.0
0.50391 0.48047 0.77344 1.0
0.50391 0.48047 0.77344 1.0
0.50391 0.48047 0.77344 1.0
0.50391 0.48047 0.77344 1.0
0.50391 0.48047 0.77344 1.0
0.50391 0.48047 0.77344 1.0
0.50391 0.48047 0.77344 1.0
0.50391 0.48047 0.77344 1.0
0.50391 0.48047 0.77344 1.0
0.50391 0.48047 0.77344 1.0
0.50391 0.48047 0.77344 1.0
0.93750 0.00000 0.00000 1.0
0.93750 0.00000 0.00000 1.0
0.93750 0.00000 0.00000 1.0
0.93750 0.00000 0.00000 1.0
0.93750 0.00000 0.00000 1.0
0.93750 0.00000 0.00000 1.0
0.93750 0.00000 0.00000 1.0
0.93750 0.00000 0.00000 1.0
0.93750 0.00000 0.00000 1.0
0.93750 0.00000 0.00000 1.0
0.93750 0.00000 0.00000 1.0
0.93750 0.00000 0.00000 1.0
0.93750 0.00000 0.00000 1.0
0.93750 0.00000 0.00000 1.0
0.93750 0.00000 0.00000 1.0
0.93750 0.00000 0.00000 1.0
0.93750 0.00000 0.00000 1.0
0.93750 0.00000 0.00000 1.0
0.93750 0.00000 0.00000 1.0
0.93750 0.00000 0.00000 1.0
0.93750 0.00000 0.00000 1.0
0.93750 0.00000 0.00000 1.0
0.93750 0.00000 0.00000 1.0
0.93750 0.00000 0.00000 1.0
0.93750 0.00000 0.00000 1.0
0.93750 0.00000 0.00000 1.0
0.93750 0.00000 0.00000 1.0
0.93750 0.00000 0.00000 1.0
0.93750 0.00000 0.00000 1.0
0.93750 0.00000 0.00000 1.0
0.93750 0.00000 0.00000 1.0
0.93750 0.00000 0.00000 1.0
0.93750 0.00000 0.00000 1.0
0.93750 0.00000 0.00000 1.0
0.93750 0.00000 0.00000 1.0
0.93750 0.00000 0.00000 1.0
0.50391 0.48047 0.77344 1.0
0.50391 0.48047 0.77344 1.0
0.50391 0.48047 0.77344 1.0
0.50391 0.48047 0.77344 1.0
0.50391 0.48047 0.77344 1.0
0.50391 0.48047 0.77344 1.0
0.50391 0.48047 0.77344 1.0
0.50391 0.48047 0.77344 1.0
0.50391 0.48047 0.77344 1.0
0.50391 0.48047 0.77344 1.0
0.50391 0.48047 0.77344 1.0
0.50391 0.48047 0.77344 1.0
0.50391 0.48047 0.77344 1.0
0.50391 0.48047 0.77344 1.0
0.50391 0.48047 0.77344 1.0
0.50391 0.48047 0.77344 1.0
0.50391 0.48047 0.77344 1.0
0.50391 0.48047 0.77344 1.0
0.93750 0.00000 0.00000 1.0
0.93750 0.00000 0.00000 1.0
0.93750 0.00000 0.00000 1.0
0.93750 0.00000 0.00000 1.0
0.93750 0.00000 0.00000 1.0
0.93750 0.00000 0.00000 1.0
0.93750 0.00000 0.00000 1.0
0.93750 0.00000 0.00000 1.0
0.93750 0.00000 0.00000 1.0
0.93750 0.00000 0.00000 1.0
0.93750 0.00000 0.00000 1.0
0.93750 0.00000 0.00000 1.0
0.93750 0.00000 0.00000 1.0
0.93750 0.00000 0.00000 1.0
0.93750 0.00000 0.00000 1.0
0.93750 0.00000 0.00000 1.0
0.93750 0.00000 0.00000 1.0
0.93750 0.00000 0.00000 1.0
0.50391 0.48047 0.77344 1.0
0.50391 0.48047 0.77344 1.0
0.50391 0.48047 0.77344 1.0
0.50391 0.48047 0.77344 1.0
0.50391 0.48047 0.77344 1.0
0.50391 0.48047 0.77344 1.0
0.50391 0.48047 0.77344 1.0
0.50391 0.48047 0.77344 1.0
0.50391 0.48047 0.77344 1.0
0.50391 0.48047 0.77344 1.0
0.50391 0.48047 0.77344 1.0
0.50391 0.48047 0.77344 1.0
0.50391 0.48047 0.77344 1.0
0.50391 0.48047 0.77344 1.0
0.50391 0.48047 0.77344 1.0
0.50391 0.48047 0.77344 1.0
0.50391 0.48047 0.77344 1.0
0.50391 0.48047 0.77344 1.0
0.93750 0.00000 0.00000 1.0
0.93750 0.00000 0.00000 1.0
0.93750 0.00000 0.00000 1.0
0.93750 0.00000 0.00000 1.0
0.93750 0.00000 0.00000 1.0
0.93750 0.00000 0.00000 1.0
0.93750 0.00000 0.00000 1.0
0.93750 0.00000 0.00000 1.0
0.93750 0.00000 0.00000 1.0
0.93750 0.00000 0.00000 1.0
0.93750 0.00000 0.00000 1.0
0.93750 0.00000 0.00000 1.0
0.93750 0.00000 0.00000 1.0
0.93750 0.00000 0.00000 1.0
0.93750 0.00000 0.00000 1.0
0.93750 0.00000 0.00000 1.0
0.93750 0.00000 0.00000 1.0
0.93750 0.00000 0.00000 1.0
0.33984 0.35156 0.37500 1.0
0.33984 0.35156 0.37500 1.0
0.33984 0.35156 0.37500 1.0
0.33984 0.35156 0.37500 1.0
0.33984 0.35156 0.37500 1.0
0.33984 0.35156 0.37500 1.0
0.33984 0.35156 0.37500 1.0
0.33984 0.35156 0.37500 1.0
0.33984 0.35156 0.37500 1.0
0.93750 0.00000 0.00000 1.0
0.93750 0.00000 0.00000 1.0
0.93750 0.00000 0.00000 1.0
0.93750 0.00000 0.00000 1.0
0.93750 0.00000 0.00000 1.0
0.93750 0.00000 0.00000 1.0
0.93750 0.00000 0.00000 1.0
0.93750 0.00000 0.00000 1.0
0.93750 0.00000 0.00000 1.0
0.93750 0.00000 0.00000 1.0
0.93750 0.00000 0.00000 1.0
0.93750 0.00000 0.00000 1.0
0.93750 0.00000 0.00000 1.0
0.93750 0.00000 0.00000 1.0
0.93750 0.00000 0.00000 1.0
0.93750 0.00000 0.00000 1.0
0.93750 0.00000 0.00000 1.0
0.93750 0.00000 0.00000 1.0
0.93750 0.00000 0.00000 1.0
0.93750 0.00000 0.00000 1.0
0.93750 0.00000 0.00000 1.0
0.93750 0.00000 0.00000 1.0
0.93750 0.00000 0.00000 1.0
0.93750 0.00000 0.00000 1.0
0.93750 0.00000 0.00000 1.0
0.93750 0.00000 0.00000 1.0
0.93750 0.00000 0.00000 1.0
0.93750 0.00000 0.00000 1.0
0.93750 0.00000 0.00000 1.0
0.93750 0.00000 0.00000 1.0
0.93750 0.00000 0.00000 1.0
0.93750 0.00000 0.00000 1.0
0.93750 0.00000 0.00000 1.0
0.93750 0.00000 0.00000 1.0
0.93750 0.00000 0.00000 1.0
0.93750 0.00000 0.00000 1.0

SCALARS Size_of_Sphere float
LOOKUP_TABLE default
0.4
0.4
0.4
0.4
0.4
0.4
0.4
0.4
0.4
0.4
0.4
0.4
0.4
0.4
0.4
0.4
0.4
0.4
0.4
0.4
0.4
0.4
0.4
0.4
0.4
0.4
0.4
0.4
0.4
0.4
0.4
0.4
0.4
0.4
0.4
0.4
0.3
0.3
0.3
0.3
0.3
0.3
0.3
0.3
0.3
0.3
0.3
0.3
0.3
0.3
0.3
0.3
0.3
0.3
0.4
0.4
0.4
0.4
0.4
0.4
0.4
0.4
0.4
0.4
0.4
0.4
0.4
0.4
0.4
0.4
0.4
0.4
0.3
0.3
0.3
0.3
0.3
0.3
0.3
0.3
0.3
0.3
0.3
0.3
0.3
0.3
0.3
0.3
0.3
0.3
0.4
0.4
0.4
0.4
0.4
0.4
0.4
0.4
0.4
0.4
0.4
0.4
0.4
0.4
0.4
0.4
0.4
0.4
0.4
0.4
0.4
0.4
0.4
0.4
0.4
0.4
0.4
0.4
0.4
0.4
0.4
0.4
0.4
0.4
0.4
0.4
0.3
0.3
0.3
0.3
0.3
0.3
0.3
0.3
0.3
0.3
0.3
0.3
0.3
0.3
0.3
0.3
0.3
0.3
0.4
0.4
0.4
0.4
0.4
0.4
0.4
0.4
0.4
0.4
0.4
0.4
0.4
0.4
0.4
0.4
0.4
0.4
0.3
0.3
0.3
0.3
0.3
0.3
0.3
0.3
0.3
0.3
0.3
0.3
0.3
0.3
0.3
0.3
0.3
0.3
0.4
0.4
0.4
0.4
0.4
0.4
0.4
0.4
0.4
0.4
0.4
0.4
0.4
0.4
0.4
0.4
0.4
0.4
0.5
0.5
0.5
0.5
0.5
0.5
0.5
0.5
0.5
0.4
0.4
0.4
0.4
0.4
0.4
0.4
0.4
0.4
0.4
0.4
0.4
0.4
0.4
0.4
0.4
0.4
0.4
0.4
0.4
0.4
0.4
0.4
0.4
0.4
0.4
0.4
0.4
0.4
0.4
0.4
0.4
0.4
0.4
0.4
0.4

CELL_DATA 611
SCALARS Color_of_Cells float
LOOKUP_TABLE default
0.3
0.3
0.3
0.3
0.3
0.3
0.3
0.3
0.3
0.3
0.3
0.3
0.3
0.3
0.3
0.3
0.3
0.3
0.3
0.3
0.3
0.3
0.3
0.3
0.3
0.3
0.3
0.3
0.3
0.3
0.3
0.3
0.3
0.3
0.3
0.3
0.3
0.3
0.3
0.3
0.3
0.3
0.3
0.3
0.3
0.3
0.3
0.3
0.3
0.3
0.3
0.3
0.3
0.3
0.3
0.3
0.3
0.3
0.3
0.3
0.3
0.3
0.3
0.3
0.3
0.3
0.3
0.3
0.3
0.3
0.3
0.3
0.3
0.3
0.3
0.3
0.3
0.3
0.3
0.3
0.3
0.3
0.3
0.3
0.3
0.3
0.3
0.3
0.3
0.3
0.3
0.3
0.3
0.3
0.3
0.3
0.3
0.3
0.3
0.3
0.3
0.3
0.3
0.3
0.3
0.3
0.3
0.3
0.3
0.3
0.3
0.3
0.3
0.3
0.3
0.3
0.3
0.3
0.3
0.3
0.3
0.3
0.3
0.3
0.3
0.3
0.3
0.3
0.3
0.3
0.3
0.3
0.3
0.3
0.3
0.3
0.3
0.3
0.3
0.3
0.3
0.3
0.3
0.3
0.3
0.3
0.3
0.3
0.3
0.3
0.3
0.3
0.3
0.3
0.3
0.3
0.3
0.3
0.3
0.3
0.3
0.3
0.3
0.3
0.3
0.3
0.3
0.3
0.3
0.3
0.3
0.3
0.3
0.3
0.3
0.3
0.3
0.3
0.3
0.3
0.3
0.3
0.3
0.3
0.3
0.3
0.3
0.3
0.3
0.3
0.3
0.3
0.3
0.3
0.3
0.3
0.3
0.3
0.3
0.3
0.3
0.3
0.3
0.3
0.3
0.3
0.3
0.3
0.3
0.3
0.3
0.3
0.3
0.3
0.3
0.3
0.3
0.3
0.3
0.3
0.3
0.3
0.3
0.3
0.3
0.3
0.3
0.3
0.3
0.3
0.3
0.3
0.3
0.3
0.3
0.3
0.3
0.3
0.3
0.3
0.3
0.3
0.3
0.3
0.3
0.3
0.3
0.3
0.3
0.3
0.3
0.3
0.3
0.3
0.3
0.3
0.3
0.3
0.3
0.3
0.3
0.3
0.3
0.3
0.3
0.3
0.3
0.3
0.3
0.3
0.3
0.3
0.3
0.3
0.3
0.3
0.3
0.3
0.3
0.3
0.3
0.3
0.3
0.3
0.3
0.3
0.3
0.3
0.3
0.3
0.3
0.3
0.3
0.3
0.3
0.3
0.3
0.3
0.3
0.3
0.3
0.3
0.3
0.3
0.3
0.3
0.3
0.3
0.3
0.3
0.3
0.3
0.3
0.3
0.3
0.3
0.3
0.3
0.3
0.3
0.3
0.3
0.3
0.3
0.3
0.3
0.3
0.3
0.3
0.3
0.3
0.3
0.3
0.3
0.3
0.3
0.3
0.3
0.3
0.3
0.3
0.3
0.3
0.3
0.3
0.3
0.3
0.3
0.3
0.3
0.3
0.3
0.3
0.3
0.3
0.3
0.3
0.3
0.3
0.3
0.3
0.3
0.3
0.3
0.3
0.3
0.3
0.3
0.3
0.3
0.3
0.3
0.3
0.3
0.3
0.3
0.3
0.3
0.3
0.3
0.3
0.3
0.3
0.3
0.3
0.3
0.3
0.3
0.3
0.3
0.3
0.3
0.3
0.3
0.3
0.3
0.3
0.3
0.3
0.3
0.3
0.3
0.3
0.3
0.3
0.3
0.3
0.3
0.3
0.3
0.3
0.3
0.3
0.3
0.3
0.3
0.3
0.3
0.3
0.3
0.3
0.3
0.3
0.3
0.3
0.3
0.3
0.3
0.3
0.3
0.3
0.3
0.3
0.3
0.3
0.3
0.3
0.3
0.3
0.3
0.3
0.3
0.3
0.3
0.3
0.3
0.3
0.3
0.3
0.3
0.3
0.3
0.3
0.3
0.3
0.3
0.3
0.3
0.3
0.3
0.3
0.3
0.3
0.3
0.3
0.3
0.3
0.3
0.3
0.3
0.3
0.3
0.3
0.3
0.3
0.3
0.3
0.3
0.3
0.3
0.3
0.3
0.3
0.3
0.3
0.3
0.3
0.3
0.3
0.3
0.3
0.3
0.3
0.3
0.3
0.3
0.3
0.3
0.3
0.3
0.3
0.3
0.3
0.3
0.3
0.3
0.3
0.3
0.3
0.3
0.3
0.3
0.3
0.3
0.3
0.3
0.3
0.3
0.3
0.3
0.3
0.3
0.3
0.3
0.3
0.3
0.3
0.3
0.3
0.3
0.3
0.3
0.3
0.3
0.3
0.3
0.3
0.3
0.3
0.3
0.3
0.3
0.3
0.3
0.3
0.3
0.3
0.3
0.3
0.3
0.3
0.3
0.3
0.3
0.3
0.3
0.3
0.3
0.3
0.3
0.3
0.3
0.3
0.3
0.3
0.3
0.3
0.3
0.3
0.3
0.3
0.3
0.3
0.3
0.3
0.3
0.3
0.3
0.3
0.3
0.3
0.3
0.3
0.3
0.3
0.3
0.3
0.3
0.3
0.3
0.3
0.3
0.3
0.3
0.3
0.3
0.3
0.3
0.3
0.3
0.3
0.3
0.3
0.3
0.3
0.3
0.3
0.3
0.3
0.3
0.3

SCALARS Size_of_Cells float
LOOKUP_TABLE default
0.3
0.3
0.3
0.3
0.3
0.3
0.3
0.3
0.3
0.3
0.3
0.3
0.3
0.3
0.3
0.3
0.3
0.3
0.3
0.3
0.3
0.3
0.3
0.3
0.3
0.3
0.3
0.3
0.3
0.3
0.3
0.3
0.3
0.3
0.3
0.3
0.3
0.3
0.3
0.3
0.3
0.3
0.3
0.3
0.3
0.3
0.3
0.3
0.3
0.3
0.3
0.3
0.3
0.3
0.3
0.3
0.3
0.3
0.3
0.3
0.3
0.3
0.3
0.3
0.3
0.3
0.3
0.3
0.3
0.3
0.3
0.3
0.3
0.3
0.3
0.3
0.3
0.3
0.3
0.3
0.3
0.3
0.3
0.3
0.3
0.3
0.3
0.3
0.3
0.3
0.3
0.3
0.3
0.3
0.3
0.3
0.3
0.3
0.3
0.3
0.3
0.3
0.3
0.3
0.3
0.3
0.3
0.3
0.3
0.3
0.3
0.3
0.3
0.3
0.3
0.3
0.3
0.3
0.3
0.3
0.3
0.3
0.3
0.3
0.3
0.3
0.3
0.3
0.3
0.3
0.3
0.3
0.3
0.3
0.3
0.3
0.3
0.3
0.3
0.3
0.3
0.3
0.3
0.3
0.3
0.3
0.3
0.3
0.3
0.3
0.3
0.3
0.3
0.3
0.3
0.3
0.3
0.3
0.3
0.3
0.3
0.3
0.3
0.3
0.3
0.3
0.3
0.3
0.3
0.3
0.3
0.3
0.3
0.3
0.3
0.3
0.3
0.3
0.3
0.3
0.3
0.3
0.3
0.3
0.3
0.3
0.3
0.3
0.3
0.3
0.3
0.3
0.3
0.3
0.3
0.3
0.3
0.3
0.3
0.3
0.3
0.3
0.3
0.3
0.3
0.3
0.3
0.3
0.3
0.3
0.3
0.3
0.3
0.3
0.3
0.3
0.3
0.3
0.3
0.3
0.3
0.3
0.3
0.3
0.3
0.3
0.3
0.3
0.3
0.3
0.3
0.3
0.3
0.3
0.3
0.3
0.3
0.3
0.3
0.3
0.3
0.3
0.3
0.3
0.3
0.3
0.3
0.3
0.3
0.3
0.3
0.3
0.3
0.3
0.3
0.3
0.3
0.3
0.3
0.3
0.3
0.3
0.3
0.3
0.3
0.3
0.3
0.3
0.3
0.3
0.3
0.3
0.3
0.3
0.3
0.3
0.3
0.3
0.3
0.3
0.3
0.3
0.3
0.3
0.3
0.3
0.3
0.3
0.3
0.3
0.3
0.3
0.3
0.3
0.3
0.3
0.3
0.3
0.3
0.3
0.3
0.3
0.3
0.3
0.3
0.3
0.3
0.3
0.3
0.3
0.3
0.3
0.3
0.3
0.3
0.3
0.3
0.3
0.3
0.3
0.3
0.3
0.3
0.3
0.3
0.3
0.3
0.3
0.3
0.3
0.3
0.3
0.3
0.3
0.3
0.3
0.3
0.3
0.3
0.3
0.3
0.3
0.3
0.3
0.3
0.3
0.3
0.3
0.3
0.3
0.3
0.3
0.3
0.3
0.3
0.3
0.3
0.3
0.3
0.3
0.3
0.3
0.3
0.3
0.3
0.3
0.3
0.3
0.3
0.3
0.3
0.3
0.3
0.3
0.3
0.3
0.3
0.3
0.3
0.3
0.3
0.3
0.3
0.3
0.3
0.3
0.3
0.3
0.3
0.3
0.3
0.3
0.3
0.3
0.3
0.3
0.3
0.3
0.3
0.3
0.3
0.3
0.3
0.3
0.3
0.3
0.3
0.3
0.3
0.3
0.3
0.3
0.3
0.3
0.3
0.3
0.3
0.3
0.3
0.3
0.3
0.3
0.3
0.3
0.3
0.3
0.3
0.3
0.3
0.3
0.3
0.3
0.3
0.3
0.3
0.3
0.3
0.3
0.3
0.3
0.3
0.3
0.3
0.3
0.3
0.3
0.3
0.3
0.3
0.3
0.3
0.3
0.3
0.3
0.3
0.3
0.3
0.3
0.3
0.3
0.3
0.3
0.3
0.3
0.3
0.3
0.3
0.3
0.3
0.3
0.3
0.3
0.3
0.3
0.3
0.3
0.3
0.3
0.3
0.3
0.3
0.3
0.3
0.3
0.3
0.3
0.3
0.3
0.3
0.3
0.3
0.3
0.3
0.3
0.3
0.3
0.3
0.3
0.3
0.3
0.3
0.3
0.3
0.3
0.3
0.3
0.3
0.3
0.3
0.3
0.3
0.3
0.3
0.3
0.3
0.3
0.3
0.3
0.3
0.3
0.3
0.3
0.3
0.3
0.3
0.3
0.3
0.3
0.3
0.3
0.3
0.3
0.3
0.3
0.3
0.3
0.3
0.3
0.3
0.3
0.3
0.3
0.3
0.3
0.3
0.3
0.3
0.3
0.3
0.3
0.3
0.3
0.3
0.3
0.3
0.3
0.3
0.3
0.3
0.3
0.3
0.3
0.3
0.3
0.3
0.3
0.3
0.3
0.3
0.3
0.3
0.3
0.3
0.3
0.3
0.3
0.3
0.3
0.3
0.3
0.3
0.3
0.3
0.3
0.3
0.3
0.3
0.3
0.3
0.3
0.3
0.3
0.3
0.3
0.3
0.3
0.3
0.3
0.3
0.3
0.3
0.3
0.3
0.3
0.3
0.3
0.3
0.3
0.3
0.3
0.3