# vtk DataFile Version 5.10.1
vtk file formated from the xyz file of structure model
ASCII
DATASET POLYDATA
POINTS 198 FLOAT
3.2898 5.2873 6.6557
3.2898 10.7213 6.6557
3.2898 16.1553 6.6557
8.3278 5.2873 6.6557
8.3278 10.7213 6.6557
8.3278 16.1553 6.6557
13.3658 5.2873 6.6557
13.3658 10.7213 6.6557
13.3658 16.1553 6.6557
4.2672 2.5703 6.6557
4.2672 8.0043 6.6557
4.2672 13.4383 6.6557
9.3052 2.5703 6.6557
9.3052 8.0043 6.6557
9.3052 13.4383 6.6557
14.3432 2.5703 6.6557
14.3432 8.0043 6.6557
14.3432 13.4383 6.6557
1.5416 3.2876 5.5280
1.5416 8.7216 5.5280
1.5416 14.1556 5.5280
6.5796 3.2876 5.5280
6.5796 8.7216 5.5280
6.5796 14.1556 5.5280
11.6176 3.2876 5.5280
11.6176 8.7216 5.5280
11.6176 14.1556 5.5280
0.9774 0.5651 5.5280
0.9774 5.9991 5.5280
0.9774 11.4331 5.5280
6.0154 0.5651 5.5280
6.0154 5.9991 5.5280
6.0154 11.4331 5.5280
11.0534 0.5651 5.5280
11.0534 5.9991 5.5280
11.0534 11.4331 5.5280
2.5190 4.7819 4.7541
2.5190 10.2159 4.7541
2.5190 15.6499 4.7541
7.5570 4.7819 4.7541
7.5570 10.2159 4.7541
7.5570 15.6499 4.7541
12.5950 4.7819 4.7541
12.5950 10.2159 4.7541
12.5950 15.6499 4.7541
0.0000 2.0595 4.7541
0.0000 7.4935 4.7541
0.0000 12.9275 4.7541
5.0380 2.0595 4.7541
5.0380 7.4935 4.7541
5.0380 12.9275 4.7541
10.0760 2.0595 4.7541
10.0760 7.4935 4.7541
10.0760 12.9275 4.7541
4.2672 4.0049 4.4003
4.2672 9.4389 4.4003
4.2672 14.8729 4.4003
9.3052 4.0049 4.4003
9.3052 9.4389 4.4003
9.3052 14.8729 4.4003
14.3432 4.0049 4.4003
14.3432 9.4389 4.4003
14.3432 14.8729 4.4003
3.2898 1.2824 4.4003
3.2898 6.7164 4.4003
3.2898 12.1504 4.4003
8.3278 1.2824 4.4003
8.3278 6.7164 4.4003
8.3278 12.1504 4.4003
13.3658 1.2824 4.4003
13.3658 6.7164 4.4003
13.3658 12.1504 4.4003
1.7482 4.9123 2.9704
1.7482 10.3463 2.9704
1.7482 15.7803 2.9704
6.7862 4.9123 2.9704
6.7862 10.3463 2.9704
6.7862 15.7803 2.9704
11.8242 4.9123 2.9704
11.8242 10.3463 2.9704
11.8242 15.7803 2.9704
0.7708 2.1899 2.9704
0.7708 7.6239 2.9704
0.7708 13.0579 2.9704
5.8088 2.1899 2.9704
5.8088 7.6239 2.9704
5.8088 13.0579 2.9704
10.8468 2.1899 2.9704
10.8468 7.6239 2.9704
10.8468 13.0579 2.9704
0.0000 4.1353 2.6166
0.0000 9.5693 2.6166
0.0000 15.0033 2.6166
5.0380 4.1353 2.6166
5.0380 9.5693 2.6166
5.0380 15.0033 2.6166
10.0760 4.1353 2.6166
10.0760 9.5693 2.6166
10.0760 15.0033 2.6166
2.5190 1.4128 2.6166
2.5190 6.8468 2.6166
2.5190 12.2808 2.6166
7.5570 1.4128 2.6166
7.5570 6.8468 2.6166
7.5570 12.2808 2.6166
12.5950 1.4128 2.6166
12.5950 6.8468 2.6166
12.5950 12.2808 2.6166
3.4964 2.9072 1.8427
3.4964 8.3412 1.8427
3.4964 13.7752 1.8427
8.5344 2.9072 1.8427
8.5344 8.3412 1.8427
8.5344 13.7752 1.8427
13.5724 2.9072 1.8427
13.5724 8.3412 1.8427
13.5724 13.7752 1.8427
4.0606 0.1902 1.8427
4.0606 5.6242 1.8427
4.0606 11.0582 1.8427
9.0986 0.1902 1.8427
9.0986 5.6242 1.8427
9.0986 11.0582 1.8427
14.1366 0.1902 1.8427
14.1366 5.6242 1.8427
14.1366 11.0582 1.8427
2.5190 4.4015 1.0688
2.5190 9.8355 1.0688
2.5190 15.2695 1.0688
7.5570 4.4015 1.0688
7.5570 9.8355 1.0688
7.5570 15.2695 1.0688
12.5950 4.4015 1.0688
12.5950 9.8355 1.0688
12.5950 15.2695 1.0688
0.0000 1.6845 1.0688
0.0000 7.1185 1.0688
0.0000 12.5525 1.0688
5.0380 1.6845 1.0688
5.0380 7.1185 1.0688
5.0380 12.5525 1.0688
10.0760 1.6845 1.0688
10.0760 7.1185 1.0688
10.0760 12.5525 1.0688
0.7708 3.6245 0.7150
0.7708 9.0585 0.7150
0.7708 14.4925 0.7150
5.8088 3.6245 0.7150
5.8088 9.0585 0.7150
5.8088 14.4925 0.7150
10.8468 3.6245 0.7150
10.8468 9.0585 0.7150
10.8468 14.4925 0.7150
1.7482 0.9075 0.7150
1.7482 6.3415 0.7150
1.7482 11.7755 0.7150
6.7862 0.9075 0.7150
6.7862 6.3415 0.7150
6.7862 11.7755 0.7150
11.8242 0.9075 0.7150
11.8242 6.3415 0.7150
11.8242 11.7755 0.7150
3.7785 2.5703 7.6557
3.7785 8.0043 7.6557
3.7785 13.4383 7.6557
8.8165 2.5703 7.6557
8.8165 8.0043 7.6557
8.8165 13.4383 7.6557
13.8545 2.5703 7.6557
13.8545 8.0043 7.6557
13.8545 13.4383 7.6557
3.7785 5.2873 7.6557
3.7785 10.7213 7.6557
3.7785 16.1553 7.6557
8.8165 5.2873 7.6557
8.8165 10.7213 7.6557
8.8165 16.1553 7.6557
13.8545 5.2873 7.6557
13.8545 10.7213 7.6557
13.8545 16.1553 7.6557
3.7785 2.5703 7.6557
3.7785 8.0043 7.6557
3.7785 13.4383 7.6557
8.8165 2.5703 7.6557
8.8165 8.0043 7.6557
8.8165 13.4383 7.6557
13.8545 2.5703 7.6557
13.8545 8.0043 7.6557
13.8545 13.4383 7.6557
3.7785 5.2873 7.6557
3.7785 10.7213 7.6557
3.7785 16.1553 7.6557
8.8165 5.2873 7.6557
8.8165 10.7213 7.6557
8.8165 16.1553 7.6557
13.8545 5.2873 7.6557
13.8545 10.7213 7.6557
13.8545 16.1553 7.6557
POLYGONS 176 704
3 0 18 28
3 0 18 54
3 0 64 28
3 0 64 54
3 72 18 28
3 72 18 54
3 72 64 28
3 72 64 54
3 1 19 29
3 1 19 55
3 1 65 29
3 1 65 55
3 73 19 29
3 73 19 55
3 73 65 29
3 73 65 55
3 3 21 31
3 3 21 57
3 3 67 31
3 3 67 57
3 75 21 31
3 75 21 57
3 75 67 31
3 75 67 57
3 4 22 32
3 4 22 58
3 4 68 32
3 4 68 58
3 76 22 32
3 76 22 58
3 76 68 32
3 76 68 58
3 6 24 34
3 6 24 60
3 6 70 34
3 6 70 60
3 78 24 34
3 78 24 60
3 78 70 34
3 78 70 60
3 7 25 35
3 7 25 61
3 7 71 35
3 7 71 61
3 79 25 35
3 79 25 61
3 79 71 35
3 79 71 61
3 9 21 30
3 9 21 54
3 9 63 30
3 9 63 54
3 84 21 30
3 84 21 54
3 84 63 30
3 84 63 54
3 10 22 31
3 10 22 55
3 10 64 31
3 10 64 55
3 85 22 31
3 85 22 55
3 85 64 31
3 85 64 55
3 11 23 32
3 11 23 56
3 11 65 32
3 11 65 56
3 86 23 32
3 86 23 56
3 86 65 32
3 86 65 56
3 12 24 33
3 12 24 57
3 12 66 33
3 12 66 57
3 87 24 33
3 87 24 57
3 87 66 33
3 87 66 57
3 13 25 34
3 13 25 58
3 13 67 34
3 13 67 58
3 88 25 34
3 88 25 58
3 88 67 34
3 88 67 58
3 14 26 35
3 14 26 59
3 14 68 35
3 14 68 59
3 89 26 35
3 89 26 59
3 89 68 35
3 89 68 59
3 54 75 84
3 54 75 118
3 54 108 84
3 54 108 118
3 147 75 84
3 147 75 118
3 147 108 84
3 147 108 118
3 55 76 85
3 55 76 119
3 55 109 85
3 55 109 119
3 148 76 85
3 148 76 119
3 148 109 85
3 148 109 119
3 57 78 87
3 57 78 121
3 57 111 87
3 57 111 121
3 150 78 87
3 150 78 121
3 150 111 87
3 150 111 121
3 58 79 88
3 58 79 122
3 58 112 88
3 58 112 122
3 151 79 88
3 151 79 122
3 151 112 88
3 151 112 122
3 64 72 82
3 64 72 118
3 64 109 82
3 64 109 118
3 154 72 82
3 154 72 118
3 154 109 82
3 154 109 118
3 65 73 83
3 65 73 119
3 65 110 83
3 65 110 119
3 155 73 83
3 155 73 119
3 155 110 83
3 155 110 119
3 67 75 85
3 67 75 121
3 67 112 85
3 67 112 121
3 157 75 85
3 157 75 121
3 157 112 85
3 157 112 121
3 68 76 86
3 68 76 122
3 68 113 86
3 68 113 122
3 158 76 86
3 158 76 122
3 158 113 86
3 158 113 122
3 70 78 88
3 70 78 124
3 70 115 88
3 70 115 124
3 160 78 88
3 160 78 124
3 160 115 88
3 160 115 124
3 71 79 89
3 71 79 125
3 71 116 89
3 71 116 125
3 161 79 89
3 161 79 125
3 161 116 89
3 161 116 125
LINES 265 795
2 36 0
2 36 18
2 36 28
2 36 54
2 36 64
2 36 72
2 37 1
2 37 19
2 37 29
2 37 55
2 37 65
2 37 73
2 38 2
2 38 20
2 38 56
2 38 74
2 39 3
2 39 21
2 39 31
2 39 57
2 39 67
2 39 75
2 40 4
2 40 22
2 40 32
2 40 58
2 40 68
2 40 76
2 41 5
2 41 23
2 41 59
2 41 77
2 42 6
2 42 24
2 42 34
2 42 60
2 42 70
2 42 78
2 43 7
2 43 25
2 43 35
2 43 61
2 43 71
2 43 79
2 44 8
2 44 26
2 44 62
2 44 80
2 45 18
2 45 27
2 45 81
2 46 19
2 46 28
2 46 82
2 47 20
2 47 29
2 47 83
2 48 9
2 48 21
2 48 30
2 48 54
2 48 63
2 48 84
2 49 10
2 49 22
2 49 31
2 49 55
2 49 64
2 49 85
2 50 11
2 50 23
2 50 32
2 50 56
2 50 65
2 50 86
2 51 12
2 51 24
2 51 33
2 51 57
2 51 66
2 51 87
2 52 13
2 52 25
2 52 34
2 52 58
2 52 67
2 52 88
2 53 14
2 53 26
2 53 35
2 53 59
2 53 68
2 53 89
2 90 72
2 90 81
2 90 144
2 91 73
2 91 82
2 91 145
2 92 74
2 92 83
2 92 146
2 93 54
2 93 75
2 93 84
2 93 108
2 93 118
2 93 147
2 94 55
2 94 76
2 94 85
2 94 109
2 94 119
2 94 148
2 95 56
2 95 77
2 95 86
2 95 110
2 95 149
2 96 57
2 96 78
2 96 87
2 96 111
2 96 121
2 96 150
2 97 58
2 97 79
2 97 88
2 97 112
2 97 122
2 97 151
2 98 59
2 98 80
2 98 89
2 98 113
2 98 152
2 99 63
2 99 81
2 99 108
2 99 117
2 99 153
2 100 64
2 100 72
2 100 82
2 100 109
2 100 118
2 100 154
2 101 65
2 101 73
2 101 83
2 101 110
2 101 119
2 101 155
2 102 66
2 102 84
2 102 111
2 102 120
2 102 156
2 103 67
2 103 75
2 103 85
2 103 112
2 103 121
2 103 157
2 104 68
2 104 76
2 104 86
2 104 113
2 104 122
2 104 158
2 105 69
2 105 87
2 105 114
2 105 123
2 105 159
2 106 70
2 106 78
2 106 88
2 106 115
2 106 124
2 106 160
2 107 71
2 107 79
2 107 89
2 107 116
2 107 125
2 107 161
2 126 72
2 126 108
2 126 118
2 126 144
2 126 154
2 127 73
2 127 109
2 127 119
2 127 145
2 127 155
2 128 74
2 128 110
2 128 146
2 129 75
2 129 111
2 129 121
2 129 147
2 129 157
2 130 76
2 130 112
2 130 122
2 130 148
2 130 158
2 131 77
2 131 113
2 131 149
2 132 78
2 132 114
2 132 124
2 132 150
2 132 160
2 133 79
2 133 115
2 133 125
2 133 151
2 133 161
2 134 80
2 134 116
2 134 152
2 135 81
2 135 144
2 135 153
2 136 82
2 136 145
2 136 154
2 137 83
2 137 146
2 137 155
2 138 84
2 138 108
2 138 117
2 138 147
2 138 156
2 139 85
2 139 109
2 139 118
2 139 148
2 139 157
2 140 86
2 140 110
2 140 119
2 140 149
2 140 158
2 141 87
2 141 111
2 141 120
2 141 150
2 141 159
2 142 88
2 142 112
2 142 121
2 142 151
2 142 160
2 143 89
2 143 113
2 143 122
2 143 152
2 143 161

POINT_DATA 198
SCALARS Color_of_Sphere float
LOOKUP_TABLE table_point
0.6
0.6
0.6
0.6
0.6
0.6
0.6
0.6
0.6
0.6
0.6
0.6
0.6
0.6
0.6
0.6
0.6
0.6
0.6
0.6
0.6
0.6
0.6
0.6
0.6
0.6
0.6
0.6
0.6
0.6
0.6
0.6
0.6
0.6
0.6
0.6
0.3
0.3
0.3
0.3
0.3
0.3
0.3
0.3
0.3
0.3
0.3
0.3
0.3
0.3
0.3
0.3
0.3
0.3
0.6
0.6
0.6
0.6
0.6
0.6
0.6
0.6
0.6
0.6
0.6
0.6
0.6
0.6
0.6
0.6
0.6
0.6
0.6
0.6
0.6
0.6
0.6
0.6
0.6
0.6
0.6
0.6
0.6
0.6
0.6
0.6
0.6
0.6
0.6
0.6
0.3
0.3
0.3
0.3
0.3
0.3
0.3
0.3
0.3
0.3
0.3
0.3
0.3
0.3
0.3
0.3
0.3
0.3
0.6
0.6
0.6
0.6
0.6
0.6
0.6
0.6
0.6
0.6
0.6
0.6
0.6
0.6
0.6
0.6
0.6
0.6
0.3
0.3
0.3
0.3
0.3
0.3
0.3
0.3
0.3
0.3
0.3
0.3
0.3
0.3
0.3
0.3
0.3
0.3
0.6
0.6
0.6
0.6
0.6
0.6
0.6
0.6
0.6
0.6
0.6
0.6
0.6
0.6
0.6
0.6
0.6
0.6
0.6
0.6
0.6
0.6
0.6
0.6
0.6
0.6
0.6
0.6
0.6
0.6
0.6
0.6
0.6
0.6
0.6
0.6
0.6
0.6
0.6
0.6
0.6
0.6
0.6
0.6
0.6
0.6
0.6
0.6
0.6
0.6
0.6
0.6
0.6
0.6
LOOKUP_TABLE table_point 198
0.93750 0.00000 0.00000 1.0
0.93750 0.00000 0.00000 1.0
0.93750 0.00000 0.00000 1.0
0.93750 0.00000 0.00000 1.0
0.93750 0.00000 0.00000 1.0
0.93750 0.00000 0.00000 1.0
0.93750 0.00000 0.00000 1.0
0.93750 0.00000 0.00000 1.0
0.93750 0.00000 0.00000 1.0
0.93750 0.00000 0.00000 1.0
0.93750 0.00000 0.00000 1.0
0.93750 0.00000 0.00000 1.0
0.93750 0.00000 0.00000 1.0
0.93750 0.00000 0.00000 1.0
0.93750 0.00000 0.00000 1.0
0.93750 0.00000 0.00000 1.0
0.93750 0.00000 0.00000 1.0
0.93750 0.00000 0.00000 1.0
0.93750 0.00000 0.00000 1.0
0.93750 0.00000 0.00000 1.0
0.93750 0.00000 0.00000 1.0
0.93750 0.00000 0.00000 1.0
0.93750 0.00000 0.00000 1.0
0.93750 0.00000 0.00000 1.0
0.93750 0.00000 0.00000 1.0
0.93750 0.00000 0.00000 1.0
0.93750 0.00000 0.00000 1.0
0.93750 0.00000 0.00000 1.0
0.93750 0.00000 0.00000 1.0
0.93750 0.00000 0.00000 1.0
0.93750 0.00000 0.00000 1.0
0.93750 0.00000 0.00000 1.0
0.93750 0.00000 0.00000 1.0
0.93750 0.00000 0.00000 1.0
0.93750 0.00000 0.00000 1.0
0.93750 0.00000 0.00000 1.0
0.50391 0.48047 0.77344 1.0
0.50391 0.48047 0.77344 1.0
0.50391 0.48047 0.77344 1.0
0.50391 0.48047 0.77344 1.0
0.50391 0.48047 0.77344 1.0
0.50391 0.48047 0.77344 1.0
0.50391 0.48047 0.77344 1.0
0.50391 0.48047 0.77344 1.0
0.50391 0.48047 0.77344 1.0
0.50391 0.48047 0.77344 1.0
0.50391 0.48047 0.77344 1.0
0.50391 0.48047 0.77344 1.0
0.50391 0.48047 0.77344 1.0
0.50391 0.48047 0.77344 1.0
0.50391 0.48047 0.77344 1.0
0.50391 0.48047 0.77344 1.0
0.50391 0.48047 0.77344 1.0
0.50391 0.48047 0.77344 1.0
0.93750 0.00000 0.00000 1.0
0.93750 0.00000 0.00000 1.0
0.93750 0.00000 0.00000 1.0
0.93750 0.00000 0.00000 1.0
0.93750 0.00000 0.00000 1.0
0.93750 0.00000 0.00000 1.0
0.93750 0.00000 0.00000 1.0
0.93750 0.00000 0.00000 1.0
0.93750 0.00000 0.00000 1.0
0.93750 0.00000 0.00000 1.0
0.93750 0.00000 0.00000 1.0
0.93750 0.00000 0.00000 1.0
0.93750 0.00000 0.00000 1.0
0.93750 0.00000 0.00000 1.0
0.93750 0.00000 0.00000 1.0
0.93750 0.00000 0.00000 1.0
0.93750 0.00000 0.00000 1.0
0.93750 0.00000 0.00000 1.0
0.93750 0.00000 0.00000 1.0
0.93750 0.00000 0.00000 1.0
0.93750 0.00000 0.00000 1.0
0.93750 0.00000 0.00000 1.0
0.93750 0.00000 0.00000 1.0
0.93750 0.00000 0.00000 1.0
0.93750 0.00000 0.00000 1.0
0.93750 0.00000 0.00000 1.0
0.93750 0.00000 0.00000 1.0
0.93750 0.00000 0.00000 1.0
0.93750 0.00000 0.00000 1.0
0.93750 0.00000 0.00000 1.0
0.93750 0.00000 0.00000 1.0
0.93750 0.00000 0.00000 1.0
0.93750 0.00000 0.00000 1.0
0.93750 0.00000 0.00000 1.0
0.93750 0.00000 0.00000 1.0
0.93750 0.00000 0.00000 1.0
0.50391 0.48047 0.77344 1.0
0.50391 0.48047 0.77344 1.0
0.50391 0.48047 0.77344 1.0
0.50391 0.48047 0.77344 1.0
0.50391 0.48047 0.77344 1.0
0.50391 0.48047 0.77344 1.0
0.50391 0.48047 0.77344 1.0
0.50391 0.48047 0.77344 1.0
0.50391 0.48047 0.77344 1.0
0.50391 0.48047 0.77344 1.0
0.50391 0.48047 0.77344 1.0
0.50391 0.48047 0.77344 1.0
0.50391 0.48047 0.77344 1.0
0.50391 0.48047 0.77344 1.0
0.50391 0.48047 0.77344 1.0
0.50391 0.48047 0.77344 1.0
0.50391 0.48047 0.77344 1.0
0.50391 0.48047 0.77344 1.0
0.93750 0.00000 0.00000 1.0
0.93750 0.00000 0.00000 1.0
0.93750 0.00000 0.00000 1.0
0.93750 0.00000 0.00000 1.0
0.93750 0.00000 0.00000 1.0
0.93750 0.00000 0.00000 1.0
0.93750 0.00000 0.00000 1.0
0.93750 0.00000 0.00000 1.0
0.93750 0.00000 0.00000 1.0
0.93750 0.00000 0.00000 1.0
0.93750 0.00000 0.00000 1.0
0.93750 0.00000 0.00000 1.0
0.93750 0.00000 0.00000 1.0
0.93750 0.00000 0.00000 1.0
0.93750 0.00000 0.00000 1.0
0.93750 0.00000 0.00000 1.0
0.93750 0.00000 0.00000 1.0
0.93750 0.00000 0.00000 1.0
0.50391 0.48047 0.77344 1.0
0.50391 0.48047 0.77344 1.0
0.50391 0.48047 0.77344 1.0
0.50391 0.48047 0.77344 1.0
0.50391 0.48047 0.77344 1.0
0.50391 0.48047 0.77344 1.0
0.50391 0.48047 0.77344 1.0
0.50391 0.48047 0.77344 1.0
0.50391 0.48047 0.77344 1.0
0.50391 0.48047 0.77344 1.0
0.50391 0.48047 0.77344 1.0
0.50391 0.48047 0.77344 1.0
0.50391 0.48047 0.77344 1.0
0.50391 0.48047 0.77344 1.0
0.50391 0.48047 0.77344 1.0
0.50391 0.48047 0.77344 1.0
0.50391 0.48047 0.77344 1.0
0.50391 0.48047 0.77344 1.0
0.93750 0.00000 0.00000 1.0
0.93750 0.00000 0.00000 1.0
0.93750 0.00000 0.00000 1.0
0.93750 0.00000 0.00000 1.0
0.93750 0.00000 0.00000 1.0
0.93750 0.00000 0.00000 1.0
0.93750 0.00000 0.00000 1.0
0.93750 0.00000 0.00000 1.0
0.93750 0.00000 0.00000 1.0
0.93750 0.00000 0.00000 1.0
0.93750 0.00000 0.00000 1.0
0.93750 0.00000 0.00000 1.0
0.93750 0.00000 0.00000 1.0
0.93750 0.00000 0.00000 1.0
0.93750 0.00000 0.00000 1.0
0.93750 0.00000 0.00000 1.0
0.93750 0.00000 0.00000 1.0
0.93750 0.00000 0.00000 1.0
0.93750 0.00000 0.00000 1.0
0.93750 0.00000 0.00000 1.0
0.93750 0.00000 0.00000 1.0
0.93750 0.00000 0.00000 1.0
0.93750 0.00000 0.00000 1.0
0.93750 0.00000 0.00000 1.0
0.93750 0.00000 0.00000 1.0
0.93750 0.00000 0.00000 1.0
0.93750 0.00000 0.00000 1.0
0.93750 0.00000 0.00000 1.0
0.93750 0.00000 0.00000 1.0
0.93750 0.00000 0.00000 1.0
0.93750 0.00000 0.00000 1.0
0.93750 0.00000 0.00000 1.0
0.93750 0.00000 0.00000 1.0
0.93750 0.00000 0.00000 1.0
0.93750 0.00000 0.00000 1.0
0.93750 0.00000 0.00000 1.0
0.93750 0.00000 0.00000 1.0
0.93750 0.00000 0.00000 1.0
0.93750 0.00000 0.00000 1.0
0.93750 0.00000 0.00000 1.0
0.93750 0.00000 0.00000 1.0
0.93750 0.00000 0.00000 1.0
0.93750 0.00000 0.00000 1.0
0.93750 0.00000 0.00000 1.0
0.93750 0.00000 0.00000 1.0
0.93750 0.00000 0.00000 1.0
0.93750 0.00000 0.00000 1.0
0.93750 0.00000 0.00000 1.0
0.93750 0.00000 0.00000 1.0
0.93750 0.00000 0.00000 1.0
0.93750 0.00000 0.00000 1.0
0.93750 0.00000 0.00000 1.0
0.93750 0.00000 0.00000 1.0
0.93750 0.00000 0.00000 1.0

SCALARS Size_of_Sphere float
LOOKUP_TABLE default
0.4
0.4
0.4
0.4
0.4
0.4
0.4
0.4
0.4
0.4
0.4
0.4
0.4
0.4
0.4
0.4
0.4
0.4
0.4
0.4
0.4
0.4
0.4
0.4
0.4
0.4
0.4
0.4
0.4
0.4
0.4
0.4
0.4
0.4
0.4
0.4
0.3
0.3
0.3
0.3
0.3
0.3
0.3
0.3
0.3
0.3
0.3
0.3
0.3
0.3
0.3
0.3
0.3
0.3
0.4
0.4
0.4
0.4
0.4
0.4
0.4
0.4
0.4
0.4
0.4
0.4
0.4
0.4
0.4
0.4
0.4
0.4
0.4
0.4
0.4
0.4
0.4
0.4
0.4
0.4
0.4
0.4
0.4
0.4
0.4
0.4
0.4
0.4
0.4
0.4
0.3
0.3
0.3
0.3
0.3
0.3
0.3
0.3
0.3
0.3
0.3
0.3
0.3
0.3
0.3
0.3
0.3
0.3
0.4
0.4
0.4
0.4
0.4
0.4
0.4
0.4
0.4
0.4
0.4
0.4
0.4
0.4
0.4
0.4
0.4
0.4
0.3
0.3
0.3
0.3
0.3
0.3
0.3
0.3
0.3
0.3
0.3
0.3
0.3
0.3
0.3
0.3
0.3
0.3
0.4
0.4
0.4
0.4
0.4
0.4
0.4
0.4
0.4
0.4
0.4
0.4
0.4
0.4
0.4
0.4
0.4
0.4
0.4
0.4
0.4
0.4
0.4
0.4
0.4
0.4
0.4
0.4
0.4
0.4
0.4
0.4
0.4
0.4
0.4
0.4
0.4
0.4
0.4
0.4
0.4
0.4
0.4
0.4
0.4
0.4
0.4
0.4
0.4
0.4
0.4
0.4
0.4
0.4

CELL_DATA 441
SCALARS Color_of_Cells float
LOOKUP_TABLE default
0.3
0.3
0.3
0.3
0.3
0.3
0.3
0.3
0.3
0.3
0.3
0.3
0.3
0.3
0.3
0.3
0.3
0.3
0.3
0.3
0.3
0.3
0.3
0.3
0.3
0.3
0.3
0.3
0.3
0.3
0.3
0.3
0.3
0.3
0.3
0.3
0.3
0.3
0.3
0.3
0.3
0.3
0.3
0.3
0.3
0.3
0.3
0.3
0.3
0.3
0.3
0.3
0.3
0.3
0.3
0.3
0.3
0.3
0.3
0.3
0.3
0.3
0.3
0.3
0.3
0.3
0.3
0.3
0.3
0.3
0.3
0.3
0.3
0.3
0.3
0.3
0.3
0.3
0.3
0.3
0.3
0.3
0.3
0.3
0.3
0.3
0.3
0.3
0.3
0.3
0.3
0.3
0.3
0.3
0.3
0.3
0.3
0.3
0.3
0.3
0.3
0.3
0.3
0.3
0.3
0.3
0.3
0.3
0.3
0.3
0.3
0.3
0.3
0.3
0.3
0.3
0.3
0.3
0.3
0.3
0.3
0.3
0.3
0.3
0.3
0.3
0.3
0.3
0.3
0.3
0.3
0.3
0.3
0.3
0.3
0.3
0.3
0.3
0.3
0.3
0.3
0.3
0.3
0.3
0.3
0.3
0.3
0.3
0.3
0.3
0.3
0.3
0.3
0.3
0.3
0.3
0.3
0.3
0.3
0.3
0.3
0.3
0.3
0.3
0.3
0.3
0.3
0.3
0.3
0.3
0.3
0.3
0.3
0.3
0.3
0.3
0.3
0.3
0.3
0.3
0.3
0.3
0.3
0.3
0.3
0.3
0.3
0.3
0.3
0.3
0.3
0.3
0.3
0.3
0.3
0.3
0.3
0.3
0.3
0.3
0.3
0.3
0.3
0.3
0.3
0.3
0.3
0.3
0.3
0.3
0.3
0.3
0.3
0.3
0.3
0.3
0.3
0.3
0.3
0.3
0.3
0.3
0.3
0.3
0.3
0.3
0.3
0.3
0.3
0.3
0.3
0.3
0.3
0.3
0.3
0.3
0.3
0.3
0.3
0.3
0.3
0.3
0.3
0.3
0.3
0.3
0.3
0.3
0.3
0.3
0.3
0.3
0.3
0.3
0.3
0.3
0.3
0.3
0.3
0.3
0.3
0.3
0.3
0.3
0.3
0.3
0.3
0.3
0.3
0.3
0.3
0.3
0.3
0.3
0.3
0.3
0.3
0.3
0.3
0.3
0.3
0.3
0.3
0.3
0.3
0.3
0.3
0.3
0.3
0.3
0.3
0.3
0.3
0.3
0.3
0.3
0.3
0.3
0.3
0.3
0.3
0.3
0.3
0.3
0.3
0.3
0.3
0.3
0.3
0.3
0.3
0.3
0.3
0.3
0.3
0.3
0.3
0.3
0.3
0.3
0.3
0.3
0.3
0.3
0.3
0.3
0.3
0.3
0.3
0.3
0.3
0.3
0.3
0.3
0.3
0.3
0.3
0.3
0.3
0.3
0.3
0.3
0.3
0.3
0.3
0.3
0.3
0.3
0.3
0.3
0.3
0.3
0.3
0.3
0.3
0.3
0.3
0.3
0.3
0.3
0.3
0.3
0.3
0.3
0.3
0.3
0.3
0.3
0.3
0.3
0.3
0.3
0.3
0.3
0.3
0.3
0.3
0.3
0.3
0.3
0.3
0.3
0.3
0.3
0.3
0.3
0.3
0.3
0.3
0.3
0.3
0.3
0.3
0.3
0.3
0.3
0.3
0.3
0.3
0.3
0.3
0.3
0.3
0.3
0.3
0.3
0.3
0.3
0.3
0.3
0.3
0.3
0.3
0.3
0.3
0.3
0.3
0.3
0.3
0.3
0.3
0.3
0.3
0.3
0.3
0.3
0.3
0.3
0.3
0.3
0.3
0.3
0.3
0.3
0.3
0.3
0.3
0.3
0.3
0.3
0.3

SCALARS Size_of_Cells float
LOOKUP_TABLE default
0.3
0.3
0.3
0.3
0.3
0.3
0.3
0.3
0.3
0.3
0.3
0.3
0.3
0.3
0.3
0.3
0.3
0.3
0.3
0.3
0.3
0.3
0.3
0.3
0.3
0.3
0.3
0.3
0.3
0.3
0.3
0.3
0.3
0.3
0.3
0.3
0.3
0.3
0.3
0.3
0.3
0.3
0.3
0.3
0.3
0.3
0.3
0.3
0.3
0.3
0.3
0.3
0.3
0.3
0.3
0.3
0.3
0.3
0.3
0.3
0.3
0.3
0.3
0.3
0.3
0.3
0.3
0.3
0.3
0.3
0.3
0.3
0.3
0.3
0.3
0.3
0.3
0.3
0.3
0.3
0.3
0.3
0.3
0.3
0.3
0.3
0.3
0.3
0.3
0.3
0.3
0.3
0.3
0.3
0.3
0.3
0.3
0.3
0.3
0.3
0.3
0.3
0.3
0.3
0.3
0.3
0.3
0.3
0.3
0.3
0.3
0.3
0.3
0.3
0.3
0.3
0.3
0.3
0.3
0.3
0.3
0.3
0.3
0.3
0.3
0.3
0.3
0.3
0.3
0.3
0.3
0.3
0.3
0.3
0.3
0.3
0.3
0.3
0.3
0.3
0.3
0.3
0.3
0.3
0.3
0.3
0.3
0.3
0.3
0.3
0.3
0.3
0.3
0.3
0.3
0.3
0.3
0.3
0.3
0.3
0.3
0.3
0.3
0.3
0.3
0.3
0.3
0.3
0.3
0.3
0.3
0.3
0.3
0.3
0.3
0.3
0.3
0.3
0.3
0.3
0.3
0.3
0.3
0.3
0.3
0.3
0.3
0.3
0.3
0.3
0.3
0.3
0.3
0.3
0.3
0.3
0.3
0.3
0.3
0.3
0.3
0.3
0.3
0.3
0.3
0.3
0.3
0.3
0.3
0.3
0.3
0.3
0.3
0.3
0.3
0.3
0.3
0.3
0.3
0.3
0.3
0.3
0.3
0.3
0.3
0.3
0.3
0.3
0.3
0.3
0.3
0.3
0.3
0.3
0.3
0.3
0.3
0.3
0.3
0.3
0.3
0.3
0.3
0.3
0.3
0.3
0.3
0.3
0.3
0.3
0.3
0.3
0.3
0.3
0.3
0.3
0.3
0.3
0.3
0.3
0.3
0.3
0.3
0.3
0.3
0.3
0.3
0.3
0.3
0.3
0.3
0.3
0.3
0.3
0.3
0.3
0.3
0.3
0.3
0.3
0.3
0.3
0.3
0.3
0.3
0.3
0.3
0.3
0.3
0.3
0.3
0.3
0.3
0.3
0.3
0.3
0.3
0.3
0.3
0.3
0.3
0.3
0.3
0.3
0.3
0.3
0.3
0.3
0.3
0.3
0.3
0.3
0.3
0.3
0.3
0.3
0.3
0.3
0.3
0.3
0.3
0.3
0.3
0.3
0.3
0.3
0.3
0.3
0.3
0.3
0.3
0.3
0.3
0.3
0.3
0.3
0.3
0.3
0.3
0.3
0.3
0.3
0.3
0.3
0.3
0.3
0.3
0.3
0.3
0.3
0.3
0.3
0.3
0.3
0.3
0.3
0.3
0.3
0.3
0.3
0.3
0.3
0.3
0.3
0.3
0.3
0.3
0.3
0.3
0.3
0.3
0.3
0.3
0.3
0.3
0.3
0.3
0.3
0.3
0.3
0.3
0.3
0.3
0.3
0.3
0.3
0.3
0.3
0.3
0.3
0.3
0.3
0.3
0.3
0.3
0.3
0.3
0.3
0.3
0.3
0.3
0.3
0.3
0.3
0.3
0.3
0.3
0.3
0.3
0.3
0.3
0.3
0.3
0.3
0.3
0.3
0.3
0.3
0.3
0.3
0.3
0.3
0.3
0.3
0.3
0.3
0.3
0.3
0.3
0.3
0.3
0.3
0.3
0.3
0.3
0.3
0.3
0.3
0.3
0.3
0.3